LAMMPS (29 Oct 2020)
# MD simulation for NNP water

###############################################################################
# INITIALIZATION
###############################################################################
units metal
boundary p p p
atom_style atomic
timestep 0.0005
thermo 1

##############################################################################
# SYSTEM DEFINTION
##############################################################################
read_data "initial_configuration.data"
Reading data file ...
  triclinic box = (0.8942739 0.8942739 0.8942739) to (16.689126 16.689126 16.689126) with tilt (0.0000000 0.0000000 0.0000000)
  1 by 1 by 1 MPI processor grid
  reading atoms ...
  384 atoms
  reading velocities ...
  384 velocities
  read_data CPU = 0.001 seconds

###############################################################################
# SIMULATION SETTINGS / NNP POTENTIAL
###############################################################################
mass 1 1.00794
mass 2 15.9994

pair_style nnp dir nnp-data showew no showewsum 10 resetew yes maxew 100 cflength 1.8897261328 cfenergy 0.0367493254 emap "1:H,2:O"
pair_coeff * * 6.36


# INTEGRATOR
fix INT all nve

###############################################################################
# RUN
###############################################################################
dump 1 all atom 5 traj.dump
run 10000

*******************************************************************************

WELCOME TO n²p², A SOFTWARE PACKAGE FOR NEURAL NETWORK POTENTIALS!
------------------------------------------------------------------

n²p² version  (from git): v2.2.0-1-g6be249e1
             (version.h): v2.2.0
------------------------------------------------------------
Git branch              : master
Git revision            : 6be249e19d1cbabf487753a56a86f9b6395c0bdb
Compile date/time       : Jun 27 2022 13:10:53
------------------------------------------------------------

Features/Flags:
------------------------------------------------------------
Symmetry function groups     : enabled
Symmetry function cache      : enabled
Timing function available    : available
Asymmetric polynomial SFs    : available
SF low neighbor number check : enabled
SF derivative memory layout  : reduced
MPI explicitly disabled      : no
------------------------------------------------------------

Please cite the following papers when publishing results obtained with n²p²:
-------------------------------------------------------------------------------
 * General citation for n²p² and the LAMMPS interface:

 Singraber, A.; Behler, J.; Dellago, C.
 Library-Based LAMMPS Implementation of High-Dimensional
 Neural Network Potentials.
 J. Chem. Theory Comput. 2019 15 (3), 1827–1840.
 https://doi.org/10.1021/acs.jctc.8b00770
-------------------------------------------------------------------------------
 * Additionally, if you use the NNP training features of n²p²:

 Singraber, A.; Morawietz, T.; Behler, J.; Dellago, C.
 Parallel Multistream Training of High-Dimensional Neural
 Network Potentials.
 J. Chem. Theory Comput. 2019, 15 (5), 3075–3092.
 https://doi.org/10.1021/acs.jctc.8b01092
-------------------------------------------------------------------------------
 * Additionally, if polynomial symmetry functions are used:

 Bircher, M. P.; Singraber, A.; Dellago, C.
 Improved Description of Atomic Environments Using Low-Cost
 Polynomial Functions with Compact Support.
 arXiv:2010.14414 [cond-mat, physics:physics] 2020.
 https://arxiv.org/abs/2010.14414
*******************************************************************************

*** SETUP: SETTINGS FILE ******************************************************

Settings file name: nnp-data/input.nn
Read 175 lines.
Found 102 lines with keywords.
This settings file defines a short-range only NNP.
*******************************************************************************

*** SETUP: NORMALIZATION ******************************************************

Data set normalization is used.
Mean energy per atom     :  -2.5521343547039809E+01
Conversion factor energy :   2.4265748255366972E+02
Conversion factor length :   5.8038448995319847E+00
*******************************************************************************

*** SETUP: ELEMENT MAP ********************************************************

Number of element strings found: 2
Element  0:  H (  1)
Element  1:  O (  8)
*******************************************************************************

*** SETUP: ELEMENTS ***********************************************************

Number of elements is consistent: 2
Atomic energy offsets per element:
Element  0:   0.00000000E+00
Element  1:   0.00000000E+00
Energy offsets are automatically subtracted from reference energies.
*******************************************************************************

*** SETUP: CUTOFF FUNCTIONS ***************************************************

Parameter alpha for inner cutoff: 0.000000
Inner cutoff = Symmetry function cutoff * alpha
Equal cutoff function type for all symmetry functions:
CutoffFunction::CT_TANHU (2)
f(r) = tanh^3(1 - r/rc)
*******************************************************************************

*** SETUP: SYMMETRY FUNCTIONS *************************************************

Abbreviations:
--------------
ind .... Symmetry function index.
ec ..... Central atom element.
tp ..... Symmetry function type.
sbtp ... Symmetry function subtype (e.g. cutoff type).
e1 ..... Neighbor 1 element.
e2 ..... Neighbor 2 element.
eta .... Gaussian width eta.
rs/rl... Shift distance of Gaussian or left cutoff radius for polynomial.
angl.... Left cutoff angle for polynomial.
angr.... Right cutoff angle for polynomial.
la ..... Angle prefactor lambda.
zeta ... Angle term exponent zeta.
rc ..... Cutoff radius / right cutoff radius for polynomial.
a ...... Free parameter alpha (e.g. cutoff alpha).
ln ..... Line number in settings file.

Short range atomic symmetry functions element  H :
-------------------------------------------------------------------------------------------------
 ind ec tp sbtp e1 e2       eta      rs/rl         rc   angl   angr la zeta    a    ln
-------------------------------------------------------------------------------------------------
   1  H  2  ct2  H    1.000E-03  0.000E+00  1.200E+01                       0.00   106
   2  H  2  ct2  O    1.000E-03  0.000E+00  1.200E+01                       0.00   116
   3  H  2  ct2  H    1.000E-02  0.000E+00  1.200E+01                       0.00   107
   4  H  2  ct2  O    1.000E-02  0.000E+00  1.200E+01                       0.00   117
   5  H  2  ct2  H    3.000E-02  0.000E+00  1.200E+01                       0.00   108
   6  H  2  ct2  O    3.000E-02  0.000E+00  1.200E+01                       0.00   118
   7  H  2  ct2  H    6.000E-02  0.000E+00  1.200E+01                       0.00   109
   8  H  2  ct2  O    6.000E-02  0.000E+00  1.200E+01                       0.00   119
   9  H  2  ct2  O    1.500E-01  9.000E-01  1.200E+01                       0.00   120
  10  H  2  ct2  H    1.500E-01  1.900E+00  1.200E+01                       0.00   110
  11  H  2  ct2  O    3.000E-01  9.000E-01  1.200E+01                       0.00   121
  12  H  2  ct2  H    3.000E-01  1.900E+00  1.200E+01                       0.00   111
  13  H  2  ct2  O    6.000E-01  9.000E-01  1.200E+01                       0.00   122
  14  H  2  ct2  H    6.000E-01  1.900E+00  1.200E+01                       0.00   112
  15  H  2  ct2  O    1.500E+00  9.000E-01  1.200E+01                       0.00   123
  16  H  2  ct2  H    1.500E+00  1.900E+00  1.200E+01                       0.00   113
  17  H  3  ct2  O  O 1.000E-03  0.000E+00  1.200E+01               -1  4.0 0.00   170
  18  H  3  ct2  O  O 1.000E-03  0.000E+00  1.200E+01                1  4.0 0.00   169
  19  H  3  ct2  H  O 1.000E-02  0.000E+00  1.200E+01               -1  4.0 0.00   160
  20  H  3  ct2  H  O 1.000E-02  0.000E+00  1.200E+01                1  4.0 0.00   158
  21  H  3  ct2  H  O 3.000E-02  0.000E+00  1.200E+01               -1  1.0 0.00   155
  22  H  3  ct2  O  O 3.000E-02  0.000E+00  1.200E+01               -1  1.0 0.00   168
  23  H  3  ct2  H  O 3.000E-02  0.000E+00  1.200E+01                1  1.0 0.00   153
  24  H  3  ct2  O  O 3.000E-02  0.000E+00  1.200E+01                1  1.0 0.00   167
  25  H  3  ct2  H  O 7.000E-02  0.000E+00  1.200E+01               -1  1.0 0.00   150
  26  H  3  ct2  H  O 7.000E-02  0.000E+00  1.200E+01                1  1.0 0.00   148
  27  H  3  ct2  H  O 2.000E-01  0.000E+00  1.200E+01                1  1.0 0.00   145
-------------------------------------------------------------------------------------------------
Short range atomic symmetry functions element  O :
-------------------------------------------------------------------------------------------------
 ind ec tp sbtp e1 e2       eta      rs/rl         rc   angl   angr la zeta    a    ln
-------------------------------------------------------------------------------------------------
   1  O  2  ct2  H    1.000E-03  0.000E+00  1.200E+01                       0.00   125
   2  O  2  ct2  O    1.000E-03  0.000E+00  1.200E+01                       0.00   135
   3  O  2  ct2  H    1.000E-02  0.000E+00  1.200E+01                       0.00   126
   4  O  2  ct2  O    1.000E-02  0.000E+00  1.200E+01                       0.00   136
   5  O  2  ct2  H    3.000E-02  0.000E+00  1.200E+01                       0.00   127
   6  O  2  ct2  O    3.000E-02  0.000E+00  1.200E+01                       0.00   137
   7  O  2  ct2  H    6.000E-02  0.000E+00  1.200E+01                       0.00   128
   8  O  2  ct2  O    6.000E-02  0.000E+00  1.200E+01                       0.00   138
   9  O  2  ct2  H    1.500E-01  9.000E-01  1.200E+01                       0.00   129
  10  O  2  ct2  O    1.500E-01  4.000E+00  1.200E+01                       0.00   139
  11  O  2  ct2  H    3.000E-01  9.000E-01  1.200E+01                       0.00   130
  12  O  2  ct2  O    3.000E-01  4.000E+00  1.200E+01                       0.00   140
  13  O  2  ct2  H    6.000E-01  9.000E-01  1.200E+01                       0.00   131
  14  O  2  ct2  O    6.000E-01  4.000E+00  1.200E+01                       0.00   141
  15  O  2  ct2  H    1.500E+00  9.000E-01  1.200E+01                       0.00   132
  16  O  2  ct2  O    1.500E+00  4.000E+00  1.200E+01                       0.00   142
  17  O  3  ct2  H  O 1.000E-03  0.000E+00  1.200E+01               -1  4.0 0.00   165
  18  O  3  ct2  O  O 1.000E-03  0.000E+00  1.200E+01               -1  4.0 0.00   175
  19  O  3  ct2  H  O 1.000E-03  0.000E+00  1.200E+01                1  4.0 0.00   164
  20  O  3  ct2  O  O 1.000E-03  0.000E+00  1.200E+01                1  4.0 0.00   174
  21  O  3  ct2  H  H 1.000E-02  0.000E+00  1.200E+01               -1  4.0 0.00   159
  22  O  3  ct2  H  H 1.000E-02  0.000E+00  1.200E+01                1  4.0 0.00   157
  23  O  3  ct2  H  H 3.000E-02  0.000E+00  1.200E+01               -1  1.0 0.00   154
  24  O  3  ct2  H  O 3.000E-02  0.000E+00  1.200E+01               -1  1.0 0.00   163
  25  O  3  ct2  O  O 3.000E-02  0.000E+00  1.200E+01               -1  1.0 0.00   173
  26  O  3  ct2  H  H 3.000E-02  0.000E+00  1.200E+01                1  1.0 0.00   152
  27  O  3  ct2  H  O 3.000E-02  0.000E+00  1.200E+01                1  1.0 0.00   162
  28  O  3  ct2  O  O 3.000E-02  0.000E+00  1.200E+01                1  1.0 0.00   172
  29  O  3  ct2  H  H 7.000E-02  0.000E+00  1.200E+01               -1  1.0 0.00   149
  30  O  3  ct2  H  H 7.000E-02  0.000E+00  1.200E+01                1  1.0 0.00   147
-------------------------------------------------------------------------------------------------
Minimum cutoff radius for element  H: 12.000000
Minimum cutoff radius for element  O: 12.000000
Maximum cutoff radius (global)      : 12.000000
*******************************************************************************

*** SETUP: SYMMETRY FUNCTION MEMORY *******************************************

Symmetry function derivatives memory table for element  H :
-------------------------------------------------------------------------------
Relevant symmetry functions for neighbors with element:
-  H:   15 of   27 ( 55.6 %)
-  O:   19 of   27 ( 70.4 %)
-------------------------------------------------------------------------------
Symmetry function derivatives memory table for element  O :
-------------------------------------------------------------------------------
Relevant symmetry functions for neighbors with element:
-  H:   18 of   30 ( 60.0 %)
-  O:   16 of   30 ( 53.3 %)
-------------------------------------------------------------------------------
*******************************************************************************

*** SETUP: SYMMETRY FUNCTION CACHE ********************************************

Element  H: in total 4 caches, used 17.00 times on average.
Element  O: in total 4 caches, used 17.00 times on average.
*******************************************************************************

*** SETUP: SYMMETRY FUNCTION GROUPS *******************************************

Abbreviations:
--------------
ind .... Symmetry function index.
ec ..... Central atom element.
tp ..... Symmetry function type.
sbtp ... Symmetry function subtype (e.g. cutoff type).
e1 ..... Neighbor 1 element.
e2 ..... Neighbor 2 element.
eta .... Gaussian width eta.
rs/rl... Shift distance of Gaussian or left cutoff radius for polynomial.
angl.... Left cutoff angle for polynomial.
angr.... Right cutoff angle for polynomial.
la ..... Angle prefactor lambda.
zeta ... Angle term exponent zeta.
rc ..... Cutoff radius / right cutoff radius for polynomial.
a ...... Free parameter alpha (e.g. cutoff alpha).
ln ..... Line number in settings file.
mi ..... Member index.
sfi .... Symmetry function index.
e ...... Recalculate exponential term.

Short range atomic symmetry function groups element  H :
----------------------------------------------------------------------------------------------------------
 ind ec tp sbtp e1 e2       eta      rs/rl         rc   angl   angr la zeta    a    ln   mi  sfi e
----------------------------------------------------------------------------------------------------------
   1  H  2  ct2  H            *          *  1.200E+01                       0.00     *    *    *  
   -  -  -    -  -    1.000E-03  0.000E+00          -                          -   106    1    1  
   -  -  -    -  -    1.000E-02  0.000E+00          -                          -   107    2    3  
   -  -  -    -  -    3.000E-02  0.000E+00          -                          -   108    3    5  
   -  -  -    -  -    6.000E-02  0.000E+00          -                          -   109    4    7  
   -  -  -    -  -    1.500E-01  1.900E+00          -                          -   110    5   10  
   -  -  -    -  -    3.000E-01  1.900E+00          -                          -   111    6   12  
   -  -  -    -  -    6.000E-01  1.900E+00          -                          -   112    7   14  
   -  -  -    -  -    1.500E+00  1.900E+00          -                          -   113    8   16  
   2  H  2  ct2  O            *          *  1.200E+01                       0.00     *    *    *  
   -  -  -    -  -    1.000E-03  0.000E+00          -                          -   116    1    2  
   -  -  -    -  -    1.000E-02  0.000E+00          -                          -   117    2    4  
   -  -  -    -  -    3.000E-02  0.000E+00          -                          -   118    3    6  
   -  -  -    -  -    6.000E-02  0.000E+00          -                          -   119    4    8  
   -  -  -    -  -    1.500E-01  9.000E-01          -                          -   120    5    9  
   -  -  -    -  -    3.000E-01  9.000E-01          -                          -   121    6   11  
   -  -  -    -  -    6.000E-01  9.000E-01          -                          -   122    7   13  
   -  -  -    -  -    1.500E+00  9.000E-01          -                          -   123    8   15  
   3  H  3  ct2  H  O         *          *  1.200E+01                *    * 0.00     *    *    * *
   -  -  -    -  -  - 1.000E-02  0.000E+00          -               -1  4.0    -   160    1   19 1
   -  -  -    -  -  - 1.000E-02  0.000E+00          -                1  4.0    -   158    2   20 0
   -  -  -    -  -  - 3.000E-02  0.000E+00          -               -1  1.0    -   155    3   21 1
   -  -  -    -  -  - 3.000E-02  0.000E+00          -                1  1.0    -   153    4   23 0
   -  -  -    -  -  - 7.000E-02  0.000E+00          -               -1  1.0    -   150    5   25 1
   -  -  -    -  -  - 7.000E-02  0.000E+00          -                1  1.0    -   148    6   26 0
   -  -  -    -  -  - 2.000E-01  0.000E+00          -                1  1.0    -   145    7   27 1
   4  H  3  ct2  O  O         *          *  1.200E+01                *    * 0.00     *    *    * *
   -  -  -    -  -  - 1.000E-03  0.000E+00          -               -1  4.0    -   170    1   17 1
   -  -  -    -  -  - 1.000E-03  0.000E+00          -                1  4.0    -   169    2   18 0
   -  -  -    -  -  - 3.000E-02  0.000E+00          -               -1  1.0    -   168    3   22 1
   -  -  -    -  -  - 3.000E-02  0.000E+00          -                1  1.0    -   167    4   24 0
----------------------------------------------------------------------------------------------------------
Short range atomic symmetry function groups element  O :
----------------------------------------------------------------------------------------------------------
 ind ec tp sbtp e1 e2       eta      rs/rl         rc   angl   angr la zeta    a    ln   mi  sfi e
----------------------------------------------------------------------------------------------------------
   1  O  2  ct2  H            *          *  1.200E+01                       0.00     *    *    *  
   -  -  -    -  -    1.000E-03  0.000E+00          -                          -   125    1    1  
   -  -  -    -  -    1.000E-02  0.000E+00          -                          -   126    2    3  
   -  -  -    -  -    3.000E-02  0.000E+00          -                          -   127    3    5  
   -  -  -    -  -    6.000E-02  0.000E+00          -                          -   128    4    7  
   -  -  -    -  -    1.500E-01  9.000E-01          -                          -   129    5    9  
   -  -  -    -  -    3.000E-01  9.000E-01          -                          -   130    6   11  
   -  -  -    -  -    6.000E-01  9.000E-01          -                          -   131    7   13  
   -  -  -    -  -    1.500E+00  9.000E-01          -                          -   132    8   15  
   2  O  2  ct2  O            *          *  1.200E+01                       0.00     *    *    *  
   -  -  -    -  -    1.000E-03  0.000E+00          -                          -   135    1    2  
   -  -  -    -  -    1.000E-02  0.000E+00          -                          -   136    2    4  
   -  -  -    -  -    3.000E-02  0.000E+00          -                          -   137    3    6  
   -  -  -    -  -    6.000E-02  0.000E+00          -                          -   138    4    8  
   -  -  -    -  -    1.500E-01  4.000E+00          -                          -   139    5   10  
   -  -  -    -  -    3.000E-01  4.000E+00          -                          -   140    6   12  
   -  -  -    -  -    6.000E-01  4.000E+00          -                          -   141    7   14  
   -  -  -    -  -    1.500E+00  4.000E+00          -                          -   142    8   16  
   3  O  3  ct2  H  H         *          *  1.200E+01                *    * 0.00     *    *    * *
   -  -  -    -  -  - 1.000E-02  0.000E+00          -               -1  4.0    -   159    1   21 1
   -  -  -    -  -  - 1.000E-02  0.000E+00          -                1  4.0    -   157    2   22 0
   -  -  -    -  -  - 3.000E-02  0.000E+00          -               -1  1.0    -   154    3   23 1
   -  -  -    -  -  - 3.000E-02  0.000E+00          -                1  1.0    -   152    4   26 0
   -  -  -    -  -  - 7.000E-02  0.000E+00          -               -1  1.0    -   149    5   29 1
   -  -  -    -  -  - 7.000E-02  0.000E+00          -                1  1.0    -   147    6   30 0
   4  O  3  ct2  H  O         *          *  1.200E+01                *    * 0.00     *    *    * *
   -  -  -    -  -  - 1.000E-03  0.000E+00          -               -1  4.0    -   165    1   17 1
   -  -  -    -  -  - 1.000E-03  0.000E+00          -                1  4.0    -   164    2   19 0
   -  -  -    -  -  - 3.000E-02  0.000E+00          -               -1  1.0    -   163    3   24 1
   -  -  -    -  -  - 3.000E-02  0.000E+00          -                1  1.0    -   162    4   27 0
   5  O  3  ct2  O  O         *          *  1.200E+01                *    * 0.00     *    *    * *
   -  -  -    -  -  - 1.000E-03  0.000E+00          -               -1  4.0    -   175    1   18 1
   -  -  -    -  -  - 1.000E-03  0.000E+00          -                1  4.0    -   174    2   20 0
   -  -  -    -  -  - 3.000E-02  0.000E+00          -               -1  1.0    -   173    3   25 1
   -  -  -    -  -  - 3.000E-02  0.000E+00          -                1  1.0    -   172    4   28 0
----------------------------------------------------------------------------------------------------------
*******************************************************************************

*** SETUP: NEURAL NETWORKS ****************************************************

Normalize neurons (all elements): 0
-------------------------------------------------------------------------------
Atomic short range NN for element  H :
Number of weights    :   1325
Number of biases     :     51
Number of connections:   1376
Architecture       27   25   25    1
-------------------------------------------------------------------------------
   1   G   t   t   l
   2   G   t   t    
   3   G   t   t    
   4   G   t   t    
   5   G   t   t    
   6   G   t   t    
   7   G   t   t    
   8   G   t   t    
   9   G   t   t    
  10   G   t   t    
  11   G   t   t    
  12   G   t   t    
  13   G   t   t    
  14   G   t   t    
  15   G   t   t    
  16   G   t   t    
  17   G   t   t    
  18   G   t   t    
  19   G   t   t    
  20   G   t   t    
  21   G   t   t    
  22   G   t   t    
  23   G   t   t    
  24   G   t   t    
  25   G   t   t    
  26   G            
  27   G            
-------------------------------------------------------------------------------
Atomic short range NN for element  O :
Number of weights    :   1400
Number of biases     :     51
Number of connections:   1451
Architecture       30   25   25    1
-------------------------------------------------------------------------------
   1   G   t   t   l
   2   G   t   t    
   3   G   t   t    
   4   G   t   t    
   5   G   t   t    
   6   G   t   t    
   7   G   t   t    
   8   G   t   t    
   9   G   t   t    
  10   G   t   t    
  11   G   t   t    
  12   G   t   t    
  13   G   t   t    
  14   G   t   t    
  15   G   t   t    
  16   G   t   t    
  17   G   t   t    
  18   G   t   t    
  19   G   t   t    
  20   G   t   t    
  21   G   t   t    
  22   G   t   t    
  23   G   t   t    
  24   G   t   t    
  25   G   t   t    
  26   G            
  27   G            
  28   G            
  29   G            
  30   G            
-------------------------------------------------------------------------------
*******************************************************************************

*** SETUP: SYMMETRY FUNCTION SCALING ******************************************

Equal scaling type for all symmetry functions:
Scaling type::ST_SCALECENTER (3)
Gs = Smin + (Smax - Smin) * (G - Gmean) / (Gmax - Gmin)
Smin = 0.000000
Smax = 1.000000
Symmetry function scaling statistics from file: nnp-data/scaling.data
-------------------------------------------------------------------------------

Abbreviations:
--------------
ind ..... Symmetry function index.
min ..... Minimum symmetry function value.
max ..... Maximum symmetry function value.
mean .... Mean symmetry function value.
sigma ... Standard deviation of symmetry function values.
sf ...... Scaling factor for derivatives.
Smin .... Desired minimum scaled symmetry function value.
Smax .... Desired maximum scaled symmetry function value.
t ....... Scaling type.

Scaling data for symmetry functions element  H :
-------------------------------------------------------------------------------
 ind       min       max      mean     sigma        sf  Smin  Smax t
-------------------------------------------------------------------------------
   1  1.09E+00  9.62E+00  2.27E+00  6.79E-01  1.17E-01  0.00  1.00 3
   2  7.33E-01  5.00E+00  1.33E+00  3.39E-01  2.34E-01  0.00  1.00 3
   3  7.60E-01  7.14E+00  1.65E+00  5.08E-01  1.57E-01  0.00  1.00 3
   4  5.48E-01  3.77E+00  1.02E+00  2.54E-01  3.11E-01  0.00  1.00 3
   5  4.01E-01  4.15E+00  9.09E-01  2.98E-01  2.67E-01  0.00  1.00 3
   6  3.62E-01  2.27E+00  6.49E-01  1.48E-01  5.25E-01  0.00  1.00 3
   7  1.89E-01  2.23E+00  4.57E-01  1.60E-01  4.90E-01  0.00  1.00 3
   8  2.67E-01  1.32E+00  4.24E-01  8.05E-02  9.49E-01  0.00  1.00 3
   9  2.45E-01  9.48E-01  3.62E-01  5.30E-02  1.42E+00  0.00  1.00 3
  10  2.22E-01  2.76E+00  5.39E-01  2.01E-01  3.94E-01  0.00  1.00 3
  11  1.47E-01  5.56E-01  2.68E-01  2.62E-02  2.45E+00  0.00  1.00 3
  12  9.91E-02  1.73E+00  2.96E-01  1.16E-01  6.14E-01  0.00  1.00 3
  13  6.51E-02  3.45E-01  1.85E-01  1.97E-02  3.57E+00  0.00  1.00 3
  14  3.17E-02  9.13E-01  1.50E-01  5.35E-02  1.13E+00  0.00  1.00 3
  15  2.92E-03  2.65E-01  7.65E-02  1.88E-02  3.82E+00  0.00  1.00 3
  16  3.21E-04  2.87E-01  4.58E-02  2.33E-02  3.49E+00  0.00  1.00 3
  17  2.47E-04  1.38E-01  1.77E-02  9.75E-03  7.23E+00  0.00  1.00 3
  18  5.10E-03  5.83E-01  2.39E-02  3.78E-02  1.73E+00  0.00  1.00 3
  19  3.23E-04  2.16E-01  1.71E-02  1.40E-02  4.63E+00  0.00  1.00 3
  20  4.96E-02  1.69E+00  1.45E-01  1.10E-01  6.11E-01  0.00  1.00 3
  21  3.41E-03  3.16E-01  1.84E-02  2.01E-02  3.20E+00  0.00  1.00 3
  22  1.31E-04  1.03E-01  6.37E-03  6.61E-03  9.76E+00  0.00  1.00 3
  23  3.38E-02  9.16E-01  8.13E-02  5.79E-02  1.13E+00  0.00  1.00 3
  24  4.17E-04  1.58E-01  4.66E-03  9.86E-03  6.35E+00  0.00  1.00 3
  25  7.35E-04  5.92E-02  3.70E-03  3.31E-03  1.71E+01  0.00  1.00 3
  26  8.98E-03  1.94E-01  2.41E-02  1.10E-02  5.40E+00  0.00  1.00 3
  27  2.12E-04  8.78E-03  2.06E-03  5.88E-04  1.17E+02  0.00  1.00 3
-------------------------------------------------------------------------------
Scaling data for symmetry functions element  O :
-------------------------------------------------------------------------------
 ind       min       max      mean     sigma        sf  Smin  Smax t
-------------------------------------------------------------------------------
   1  1.51E+00  1.00E+01  2.65E+00  6.78E-01  1.18E-01  0.00  1.00 3
   2  4.44E-01  4.62E+00  9.66E-01  3.37E-01  2.39E-01  0.00  1.00 3
   3  1.19E+00  7.53E+00  2.03E+00  5.06E-01  1.58E-01  0.00  1.00 3
   4  2.76E-01  3.39E+00  6.59E-01  2.50E-01  3.21E-01  0.00  1.00 3
   5  8.06E-01  4.54E+00  1.30E+00  2.94E-01  2.68E-01  0.00  1.00 3
   6  1.05E-01  1.89E+00  3.07E-01  1.42E-01  5.60E-01  0.00  1.00 3
   7  5.69E-01  2.62E+00  8.48E-01  1.57E-01  4.89E-01  0.00  1.00 3
   8  2.33E-02  9.36E-01  1.11E-01  6.98E-02  1.10E+00  0.00  1.00 3
   9  5.14E-01  1.85E+00  7.25E-01  9.80E-02  7.46E-01  0.00  1.00 3
  10  1.11E-01  2.91E+00  4.75E-01  2.34E-01  3.57E-01  0.00  1.00 3
  11  3.53E-01  1.07E+00  5.35E-01  4.52E-02  1.39E+00  0.00  1.00 3
  12  3.04E-02  2.53E+00  3.17E-01  2.10E-01  4.00E-01  0.00  1.00 3
  13  1.60E-01  6.63E-01  3.70E-01  3.08E-02  1.99E+00  0.00  1.00 3
  14  2.78E-03  2.30E+00  1.77E-01  1.86E-01  4.35E-01  0.00  1.00 3
  15  9.56E-03  3.91E-01  1.53E-01  2.79E-02  2.62E+00  0.00  1.00 3
  16  3.75E-06  2.04E+00  5.41E-02  1.43E-01  4.91E-01  0.00  1.00 3
  17  2.47E-03  3.43E-01  1.67E-02  2.19E-02  2.93E+00  0.00  1.00 3
  18  1.74E-05  5.63E-02  9.55E-04  3.36E-03  1.78E+01  0.00  1.00 3
  19  5.48E-02  3.02E+00  2.04E-01  2.01E-01  3.37E-01  0.00  1.00 3
  20  1.38E-03  4.99E-01  1.28E-02  3.18E-02  2.01E+00  0.00  1.00 3
  21  6.69E-03  2.67E-01  3.09E-02  1.71E-02  3.84E+00  0.00  1.00 3
  22  1.70E-02  1.42E+00  7.63E-02  9.29E-02  7.14E-01  0.00  1.00 3
  23  1.98E-02  4.08E-01  4.88E-02  2.55E-02  2.58E+00  0.00  1.00 3
  24  5.28E-04  2.33E-01  7.21E-03  1.45E-02  4.30E+00  0.00  1.00 3
  25  1.11E-05  3.53E-02  4.25E-04  2.05E-03  2.83E+01  0.00  1.00 3
  26  1.60E-02  8.22E-01  5.08E-02  5.28E-02  1.24E+00  0.00  1.00 3
  27  3.99E-03  7.86E-01  3.69E-02  5.05E-02  1.28E+00  0.00  1.00 3
  28  4.05E-05  9.84E-02  1.21E-03  5.79E-03  1.02E+01  0.00  1.00 3
  29  6.04E-03  9.93E-02  1.62E-02  5.52E-03  1.07E+01  0.00  1.00 3
  30  2.96E-03  1.55E-01  1.16E-02  8.94E-03  6.59E+00  0.00  1.00 3
-------------------------------------------------------------------------------
*******************************************************************************

*** SETUP: SYMMETRY FUNCTION STATISTICS ***************************************

Equal symmetry function statistics for all elements.
Collect min/max/mean/sigma                        : 0
Collect extrapolation warnings                    : 1
Write extrapolation warnings immediately to stderr: 0
Halt on any extrapolation warning                 : 0
*******************************************************************************

*** SETUP: NEURAL NETWORK WEIGHTS *********************************************

Short  NN weight file name format: nnp-data/weights.%03d.data
Setting short  NN weights for element  H from file: nnp-data/weights.001.data
Setting short  NN weights for element  O from file: nnp-data/weights.008.data
*******************************************************************************

*** SETUP: LAMMPS INTERFACE ***************************************************

Individual extrapolation warnings will not be shown.
Extrapolation warning summary will be shown every 10 timesteps.
The simulation will be stopped when 100 extrapolation warnings are exceeded.
Extrapolation warning counter is reset every time step.
-------------------------------------------------------------------------------
CAUTION: If the LAMMPS unit system differs from the one used
         during NN training, appropriate conversion factors
         must be provided (see keywords cflength and cfenergy).

Length unit conversion factor:   1.8897261327999999E+00
Energy unit conversion factor:   3.6749325399999998E-02

Checking consistency of cutoff radii (in LAMMPS units):
LAMMPS Cutoff (via pair_coeff)  :   6.360E+00
Maximum symmetry function cutoff:   6.350E+00
Cutoff radii are consistent.
-------------------------------------------------------------------------------
Element mapping string from LAMMPS to n2p2: "1:H,2:O"

CAUTION: Please ensure that this mapping between LAMMPS
         atom types and NNP elements is consistent:

---------------------------
LAMMPS type  |  NNP element
---------------------------
          1 <->  H (  1)
          2 <->  O (  8)
---------------------------

NNP setup for LAMMPS completed.
*******************************************************************************
Neighbor list info ...
  update every 1 steps, delay 10 steps, check yes
  max neighbors/atom: 2000, page size: 100000
  master list distance cutoff = 8.36
  ghost atom cutoff = 8.36
  binsize = 4.18, bins = 4 4 4
  1 neighbor lists, perpetual/occasional/extra = 1 0 0
  (1) pair nnp, perpetual
      attributes: full, newton on
      pair build: full/bin/atomonly
      stencil: full/bin/3d
      bin: standard
### NNP EW SUMMARY ### TS:          0 EW          0 EWPERSTEP  0.000E+00
Per MPI rank memory allocation (min/avg/max) = 4.204 | 4.204 | 4.204 Mbytes
Step Temp E_pair E_mol TotEng Press 
       0     316.5674   -266690.79            0   -266675.12    1438.0285 
       1    316.08547   -266690.77            0   -266675.12    1432.6175 
       2    314.43957   -266690.68            0   -266675.12    1618.9887 
       3    311.87834   -266690.56            0   -266675.12    1956.6308 
       4    309.08615   -266690.41            0   -266675.11    2378.4178 
       5     307.3422   -266690.32            0   -266675.11    2801.7605 
       6    307.99355   -266690.35            0    -266675.1    3152.8365 
       7    311.41586   -266690.53            0   -266675.11    3394.5578 
       8    316.41449   -266690.78            0   -266675.12    3538.6194 
       9    320.74671      -266691            0   -266675.12    3629.3205 
### NNP EW SUMMARY ### TS:         10 EW          0 EWPERSTEP  0.000E+00
      10     322.4206   -266691.09            0   -266675.12    3708.0386 
      11    320.87307   -266691.01            0   -266675.12    3781.2321 
      12    317.28898   -266690.82            0   -266675.11    3812.8404 
      13    313.82129   -266690.64            0   -266675.11    3746.5677 
      14    312.22054   -266690.56            0   -266675.11    3543.2532 
      15    312.90102    -266690.6            0   -266675.11     3208.003 
      16    315.06185   -266690.71            0   -266675.11    2792.0541 
      17    317.50221   -266690.83            0   -266675.12    2373.6269 
      18    319.31499   -266690.93            0   -266675.12    2032.2117 
      19    320.02048   -266690.96            0   -266675.12    1828.9967 
### NNP EW SUMMARY ### TS:         20 EW          0 EWPERSTEP  0.000E+00
      20    319.33079   -266690.93            0   -266675.12    1797.6319 
      21    317.10043   -266690.82            0   -266675.12    1939.2557 
      22    313.79027   -266690.65            0   -266675.11    2215.6115 
      23    310.92237    -266690.5            0   -266675.11    2550.0824 
      24    310.56408   -266690.48            0    -266675.1     2853.441 
      25    313.86189   -266690.64            0    -266675.1    3067.2386 
      26    319.97612   -266690.95            0   -266675.11    3190.8831 
      27    326.50248   -266691.29            0   -266675.12    3270.6536 
      28    330.93248   -266691.51            0   -266675.13    3362.3436 
      29    331.95701   -266691.56            0   -266675.12    3492.6281 
### NNP EW SUMMARY ### TS:         30 EW          0 EWPERSTEP  0.000E+00
      30    329.92721   -266691.45            0   -266675.12     3639.728 
      31    326.43481   -266691.27            0   -266675.11    3743.8045 
      32    323.33406   -266691.12            0   -266675.11    3740.3909 
      33    321.82399   -266691.04            0   -266675.11    3593.7163 
      34    322.13754   -266691.06            0   -266675.11    3310.7906 
      35    323.78135   -266691.14            0   -266675.11    2937.2009 
      36    325.85351   -266691.25            0   -266675.12    2544.5264 
      37    327.20849   -266691.32            0   -266675.12    2213.3069 
      38    326.66372   -266691.29            0   -266675.12    2012.5021 
      39    323.47359   -266691.14            0   -266675.12    1977.7727 
### NNP EW SUMMARY ### TS:         40 EW          0 EWPERSTEP  0.000E+00
      40    317.94872   -266690.86            0   -266675.12    2093.6645 
      41    311.74559   -266690.54            0   -266675.11     2292.431 
      42    307.34281   -266690.32            0    -266675.1    2481.2001 
      43    306.69958   -266690.29            0    -266675.1    2589.7521 
      44    309.87227   -266690.45            0   -266675.11    2610.1819 
      45    314.76275    -266690.7            0   -266675.12    2599.1731 
      46    318.42089   -266690.89            0   -266675.13    2638.4584 
      47    318.93812   -266690.91            0   -266675.12    2781.1947 
      48    316.47554   -266690.79            0   -266675.12    3021.5366 
      49    312.79137    -266690.6            0   -266675.11    3303.2203 
### NNP EW SUMMARY ### TS:         50 EW          0 EWPERSTEP  0.000E+00
      50     309.8267   -266690.45            0   -266675.11    3554.9972 
      51    308.54843   -266690.38            0   -266675.11    3725.5718 
      52    308.85313    -266690.4            0   -266675.11    3796.3432 
      53    310.20411   -266690.47            0   -266675.11    3774.1622 
      54    312.06461   -266690.56            0   -266675.11     3681.698 
      55     313.7851   -266690.65            0   -266675.12    3553.2839 
      56    314.42075   -266690.69            0   -266675.12    3430.2383 
      57    312.99638   -266690.62            0   -266675.12    3348.3941 
      58     309.2331   -266690.43            0   -266675.12     3318.838 
      59    304.21038   -266690.17            0   -266675.11    3315.5266 
### NNP EW SUMMARY ### TS:         60 EW          0 EWPERSTEP  0.000E+00
      60    300.20913   -266689.97            0    -266675.1    3286.8578 
      61    299.44315   -266689.93            0    -266675.1    3192.2734 
      62    302.42785   -266690.08            0   -266675.11    3041.3343 
      63    307.40513   -266690.34            0   -266675.12    2902.1846 
      64    311.52484   -266690.55            0   -266675.12    2865.0653 
      65    312.87375   -266690.61            0   -266675.12    2985.6683 
      66    311.69992   -266690.55            0   -266675.12      3251.05 
      67    309.98887   -266690.46            0   -266675.11    3588.7179 
      68    309.88879   -266690.45            0   -266675.11    3907.9265 
      69    312.21572   -266690.57            0   -266675.11    4144.1813 
### NNP EW SUMMARY ### TS:         70 EW          0 EWPERSTEP  0.000E+00
      70    316.08882   -266690.76            0   -266675.12     4278.435 
      71    319.82035   -266690.95            0   -266675.12    4323.7067 
      72    322.15199   -266691.07            0   -266675.12    4298.1687 
      73    322.80218    -266691.1            0   -266675.12    4208.7658 
      74    322.14337   -266691.06            0   -266675.12    4053.4945 
      75    320.62896   -266690.99            0   -266675.12    3832.1328 
      76    318.63766   -266690.89            0   -266675.11    3550.4662 
      77    316.77815   -266690.79            0   -266675.11    3215.4828 
      78    316.06005   -266690.75            0   -266675.11    2835.0815 
      79    317.43219   -266690.82            0   -266675.11    2431.5988 
### NNP EW SUMMARY ### TS:         80 EW          0 EWPERSTEP  0.000E+00
      80    320.90563      -266691            0   -266675.11    2057.8157 
      81    325.06455   -266691.21            0   -266675.12    1796.2627 
      82    327.63068   -266691.34            0   -266675.12    1732.6429 
      83    326.91168   -266691.31            0   -266675.12    1910.7675 
      84    323.11599   -266691.11            0   -266675.12     2296.084 
      85     318.4373   -266690.87            0   -266675.11    2778.8843 
      86    315.73285   -266690.73            0    -266675.1    3221.8125 
      87    316.75379   -266690.78            0    -266675.1    3521.7786 
      88     321.1534   -266691.01            0   -266675.11    3648.2195 
      89     326.8282    -266691.3            0   -266675.12    3640.3622 
### NNP EW SUMMARY ### TS:         90 EW          0 EWPERSTEP  0.000E+00
      90    331.18558   -266691.52            0   -266675.12    3572.9796 
      91    332.36772   -266691.58            0   -266675.13    3516.0918 
      92    329.75704   -266691.45            0   -266675.12    3509.2959 
      93    323.87688   -266691.15            0   -266675.12    3553.3815 
      94    316.15954   -266690.76            0   -266675.11    3614.1984 
      95      308.686   -266690.39            0   -266675.11    3637.7346 
      96    303.60562   -266690.13            0    -266675.1    3576.4823 
      97    302.20312   -266690.06            0    -266675.1    3420.3848 
      98    304.13646   -266690.17            0   -266675.11    3215.1967 
      99    307.44889   -266690.34            0   -266675.12    3052.5468 
### NNP EW SUMMARY ### TS:        100 EW          0 EWPERSTEP  0.000E+00
     100    309.47673   -266690.45            0   -266675.12     3033.239 
     101    308.19798   -266690.38            0   -266675.13    3220.1041 
     102    303.32644   -266690.14            0   -266675.12    3601.8619 
     103    296.56722   -266689.79            0   -266675.11    4087.9715 
     104    290.79102    -266689.5            0    -266675.1    4541.2561 
     105    288.54251   -266689.38            0    -266675.1     4832.414 
     106    290.80217    -266689.5            0    -266675.1    4889.2202 
     107    296.64982    -266689.8            0   -266675.11    4719.3013 
     108    303.83771   -266690.16            0   -266675.12    4398.8471 
     109    309.83131   -266690.46            0   -266675.12    4035.6994 
### NNP EW SUMMARY ### TS:        110 EW          0 EWPERSTEP  0.000E+00
     110    312.73551   -266690.61            0   -266675.13    3727.4972 
     111    311.82505   -266690.56            0   -266675.12    3531.0019 
     112    307.77754   -266690.35            0   -266675.12    3447.8274 
     113    302.59575   -266690.09            0   -266675.11    3429.9215 
     114    298.94707    -266689.9            0    -266675.1    3406.8949 
     115    298.91452    -266689.9            0    -266675.1    3326.7716 
     116    302.80536    -266690.1            0   -266675.11    3190.0495 
     117    308.90728   -266690.41            0   -266675.12    3054.8526 
     118    314.44742   -266690.69            0   -266675.12    3007.0012 
     119    317.09682   -266690.82            0   -266675.13    3112.3924 
### NNP EW SUMMARY ### TS:        120 EW          0 EWPERSTEP  0.000E+00
     120    316.13948   -266690.77            0   -266675.12    3378.4383 
     121    312.77009    -266690.6            0   -266675.11     3743.948 
     122    309.34746   -266690.42            0   -266675.11    4102.9705 
     123     307.9956   -266690.35            0    -266675.1    4350.5701 
     124    309.52465   -266690.43            0   -266675.11    4424.1386 
     125    313.35412   -266690.62            0   -266675.11    4318.3878 
     126    318.16633   -266690.87            0   -266675.12    4073.2561 
     127    322.58662   -266691.09            0   -266675.12    3750.3906 
     128    325.52143   -266691.24            0   -266675.12    3412.7808 
     129    326.25836   -266691.27            0   -266675.12    3111.6198 
### NNP EW SUMMARY ### TS:        130 EW          0 EWPERSTEP  0.000E+00
     130    324.63757   -266691.19            0   -266675.12    2876.6763 
     131     321.3314   -266691.02            0   -266675.11    2709.6444 
     132    317.79596   -266690.84            0   -266675.11    2588.8606 
     133    315.57299   -266690.73            0   -266675.11    2490.0446 
     134    315.35984   -266690.72            0   -266675.11    2411.5694 
     135    316.63988   -266690.79            0   -266675.11    2384.6644 
     136    318.10344   -266690.87            0   -266675.12    2459.9982 
     137    318.37099   -266690.88            0   -266675.12    2682.0557 
     138    316.58523   -266690.79            0   -266675.12    3065.5066 
     139    312.83402    -266690.6            0   -266675.12     3579.906 
### NNP EW SUMMARY ### TS:        140 EW          0 EWPERSTEP  0.000E+00
     140    308.24118   -266690.37            0   -266675.11    4150.6009 
     141    304.40074   -266690.18            0   -266675.11    4680.4372 
     142     302.4318   -266690.08            0   -266675.11    5081.7288 
     143     302.4993   -266690.09            0   -266675.11    5299.3217 
     144    304.09032   -266690.17            0   -266675.11    5315.5484 
     145    306.45731   -266690.29            0   -266675.11    5143.5907 
     146    308.80413    -266690.4            0   -266675.12    4818.2737 
     147    310.41785   -266690.49            0   -266675.12    4387.1674 
     148    310.93005   -266690.51            0   -266675.12      3901.22 
     149    310.55014   -266690.49            0   -266675.11    3406.1314 
### NNP EW SUMMARY ### TS:        150 EW          0 EWPERSTEP  0.000E+00
     150    310.02186   -266690.46            0   -266675.11    2939.5572 
     151    310.22009   -266690.47            0   -266675.11    2536.1787 
     152    311.57376   -266690.54            0   -266675.11    2235.5853 
     153    313.71274   -266690.64            0   -266675.11    2083.7549 
     154    315.68096   -266690.74            0   -266675.12    2120.9206 
     155     316.5836   -266690.79            0   -266675.12    2361.8066 
     156    316.10034   -266690.77            0   -266675.12    2783.2021 
     157    314.56571   -266690.69            0   -266675.11    3323.7361 
     158     312.8228    -266690.6            0   -266675.11    3893.2058 
     159    311.94064   -266690.55            0   -266675.11    4392.2999 
### NNP EW SUMMARY ### TS:        160 EW          0 EWPERSTEP  0.000E+00
     160    312.63975   -266690.59            0   -266675.11    4739.6675 
     161    314.71105   -266690.69            0   -266675.11    4893.7795 
     162    317.13766   -266690.82            0   -266675.12    4854.8168 
     163    318.93395   -266690.91            0   -266675.12    4646.3586 
     164    319.77175   -266690.95            0   -266675.12    4296.1277 
     165    319.87161   -266690.95            0   -266675.12    3832.3115 
     166    319.64622   -266690.94            0   -266675.11    3288.7985 
     167    319.55532   -266690.93            0   -266675.11    2706.1533 
     168    320.04764   -266690.96            0   -266675.11    2129.1566 
     169    321.41261   -266691.02            0   -266675.11    1606.1317 
### NNP EW SUMMARY ### TS:        170 EW          0 EWPERSTEP  0.000E+00
     170    323.59378   -266691.13            0   -266675.11     1189.989 
     171    326.07085   -266691.26            0   -266675.11    937.64331 
     172    327.92914   -266691.35            0   -266675.12    901.47327 
     173    328.21831   -266691.37            0   -266675.12    1110.2236 
     174    326.46817   -266691.28            0   -266675.12    1550.2377 
     175    323.02828   -266691.11            0   -266675.12    2159.9674 
     176    319.01792    -266690.9            0   -266675.11    2841.5081 
     177    315.85102   -266690.74            0   -266675.11    3487.1112 
     178    314.46767   -266690.68            0   -266675.11    4011.6601 
     179     314.7411   -266690.69            0   -266675.11    4373.5769 
### NNP EW SUMMARY ### TS:        180 EW          0 EWPERSTEP  0.000E+00
     180    315.55838   -266690.74            0   -266675.12      4573.61 
     181    315.52501   -266690.74            0   -266675.12      4636.74 
     182    313.79272   -266690.65            0   -266675.12    4589.2676 
     183    310.50632   -266690.49            0   -266675.12    4443.1938 
     184    306.64982   -266690.29            0   -266675.11    4196.6821 
     185    303.47917   -266690.13            0   -266675.11    3847.5643 
     186    301.90502   -266690.05            0   -266675.11    3409.6488 
     187    302.13558   -266690.07            0   -266675.11    2922.2872 
     188    303.72759   -266690.15            0   -266675.11    2447.2106 
     189     305.8798   -266690.26            0   -266675.11    2055.7388 
### NNP EW SUMMARY ### TS:        190 EW          0 EWPERSTEP  0.000E+00
     190    307.71398   -266690.35            0   -266675.12     1814.306 
     191    308.52704   -266690.39            0   -266675.12    1770.0241 
     192    308.03242   -266690.37            0   -266675.12    1937.1868 
     193    306.42726   -266690.29            0   -266675.12    2292.0605 
     194     304.2293   -266690.17            0   -266675.11    2778.8272 
     195    302.05417   -266690.07            0   -266675.11    3321.8537 
     196     300.4277   -266689.98            0   -266675.11    3841.0629 
     197    299.61496   -266689.94            0   -266675.11    4267.5853 
     198    299.54075   -266689.94            0   -266675.11    4554.9884 
     199    299.87138   -266689.96            0   -266675.11    4683.2294 
### NNP EW SUMMARY ### TS:        200 EW          0 EWPERSTEP  0.000E+00
     200    300.18219   -266689.98            0   -266675.12    4655.1343 
     201    300.14545   -266689.97            0   -266675.12    4487.3873 
     202     299.6961   -266689.95            0   -266675.12     4202.185 
     203    299.04909   -266689.92            0   -266675.11    3825.0348 
     204     298.5714   -266689.89            0   -266675.11    3385.4938 
     205    298.64552    -266689.9            0   -266675.11    2916.9101 
     206    299.54956   -266689.94            0   -266675.11    2456.2877 
     207    301.32916   -266690.03            0   -266675.11    2044.3202 
     208    303.71825   -266690.15            0   -266675.11    1724.4368 
     209    306.23423   -266690.28            0   -266675.11    1538.8594 
### NNP EW SUMMARY ### TS:        210 EW          0 EWPERSTEP  0.000E+00
     210    308.45016   -266690.39            0   -266675.12    1519.0184 
     211    310.18821   -266690.47            0   -266675.12    1674.5454 
     212    311.43471   -266690.53            0   -266675.12    1989.3873 
     213    312.14932   -266690.57            0   -266675.12     2425.965 
     214    312.25723   -266690.58            0   -266675.12    2931.0341 
     215    311.82087   -266690.55            0   -266675.12    3440.8365 
     216    311.09961   -266690.52            0   -266675.11    3887.6471 
     217    310.33606   -266690.48            0   -266675.11    4209.9287 
     218    309.53742   -266690.44            0   -266675.12    4363.8921 
     219    308.56877   -266690.39            0   -266675.12    4329.1875 
### NNP EW SUMMARY ### TS:        220 EW          0 EWPERSTEP  0.000E+00
     220    307.47274   -266690.34            0   -266675.11    4106.3093 
     221     306.6645   -266690.29            0   -266675.11    3712.8942 
     222    306.71028    -266690.3            0   -266675.11     3186.376 
     223    307.82179   -266690.35            0   -266675.11    2588.8425 
     224    309.61557   -266690.44            0   -266675.11    2002.5193 
     225    311.39005   -266690.53            0   -266675.12    1512.8433 
     226    312.56061   -266690.59            0   -266675.12    1188.3347 
     227    312.88801   -266690.61            0   -266675.12    1066.8204 
     228    312.57309   -266690.59            0   -266675.11    1149.3309 
     229      312.295   -266690.57            0   -266675.11     1401.585 
### NNP EW SUMMARY ### TS:        230 EW          0 EWPERSTEP  0.000E+00
     230    312.94626    -266690.6            0   -266675.11    1767.1593 
     231    314.99483    -266690.7            0   -266675.11    2189.3751 
     232    317.97815   -266690.86            0   -266675.11    2627.1893 
     233    320.70851      -266691            0   -266675.12    3053.8656 
     234    322.05333   -266691.06            0   -266675.12    3442.9397 
     235    321.53999   -266691.04            0   -266675.12    3757.5837 
     236     319.3582   -266690.93            0   -266675.12    3953.6539 
     237    316.07911   -266690.76            0   -266675.12    3991.2391 
     238    312.53672   -266690.58            0   -266675.11    3843.8037 
     239    309.78902   -266690.45            0   -266675.11    3504.2564 
### NNP EW SUMMARY ### TS:        240 EW          0 EWPERSTEP  0.000E+00
     240    308.79947    -266690.4            0   -266675.11     2994.158 
     241    309.83007   -266690.45            0   -266675.11    2374.5763 
     242    312.05229   -266690.56            0   -266675.12    1745.6945 
     243    313.90676   -266690.66            0   -266675.12    1224.2061 
     244     314.0536   -266690.67            0   -266675.12     906.5478 
     245    312.18253   -266690.57            0   -266675.12    838.73472 
     246    309.16897   -266690.42            0   -266675.11    1007.1092 
     247    306.58906   -266690.29            0   -266675.11    1351.8453 
     248    305.90383   -266690.25            0   -266675.11    1794.1882 
     249    307.68218   -266690.34            0   -266675.11    2264.5804 
### NNP EW SUMMARY ### TS:        250 EW          0 EWPERSTEP  0.000E+00
     250    311.23431   -266690.52            0   -266675.11    2719.9739 
     251     314.9717   -266690.71            0   -266675.12    3141.5035 
     252    317.36128   -266690.83            0   -266675.12    3515.4609 
     253    317.71661   -266690.85            0   -266675.12    3816.1974 
     254    316.18754   -266690.77            0   -266675.12    4006.3309 
     255    313.19055   -266690.62            0   -266675.12    4049.6974 
     256    309.08259   -266690.42            0   -266675.12    3922.3862 
     257    304.41973   -266690.18            0   -266675.11    3615.6215 
     258    300.26578   -266689.97            0   -266675.11    3137.6105 
     259    297.91477   -266689.85            0   -266675.11    2522.7493 
### NNP EW SUMMARY ### TS:        260 EW          0 EWPERSTEP  0.000E+00
     260    298.10323   -266689.87            0   -266675.11    1844.6464 
     261    300.33758   -266689.98            0   -266675.11    1218.9431 
     262    302.95986   -266690.12            0   -266675.12    783.01623 
     263    304.07481   -266690.18            0   -266675.12    653.33002 
     264    302.72072   -266690.11            0   -266675.12    881.05874 
     265    299.45393   -266689.94            0   -266675.11    1431.1421 
     266     296.0133   -266689.76            0   -266675.11    2195.4701 
     267    294.34193   -266689.68            0    -266675.1    3032.3118 
     268    295.57263   -266689.74            0   -266675.11    3810.4868 
     269    299.52306   -266689.94            0   -266675.11    4438.5242 
### NNP EW SUMMARY ### TS:        270 EW          0 EWPERSTEP  0.000E+00
     270    304.88844   -266690.21            0   -266675.12    4871.3275 
     271    309.92601   -266690.46            0   -266675.12    5099.2714 
     272    313.17582   -266690.63            0   -266675.12    5131.8238 
     273    313.85887   -266690.66            0   -266675.12     4985.369 
     274    311.97032   -266690.56            0   -266675.12    4676.6644 
     275    308.20878   -266690.37            0   -266675.12    4220.7748 
     276    303.72549   -266690.15            0   -266675.11    3635.8611 
     277    299.71798   -266689.95            0   -266675.11    2953.3036 
     278    297.06414   -266689.82            0   -266675.11    2225.8681 
     279    296.13725   -266689.77            0   -266675.11     1529.624 
### NNP EW SUMMARY ### TS:        280 EW          0 EWPERSTEP  0.000E+00
     280    296.72176    -266689.8            0   -266675.11    958.31181 
     281    297.98137   -266689.87            0   -266675.12    609.25991 
     282    298.74007   -266689.91            0   -266675.12    560.30715 
     283    298.15896   -266689.88            0   -266675.12    843.15138 
     284    296.24434   -266689.78            0   -266675.12    1428.6873 
     285    293.72853   -266689.65            0   -266675.11    2234.2935 
     286     291.6455   -266689.55            0   -266675.11    3145.1112 
     287    291.00877   -266689.51            0   -266675.11    4036.5091 
     288     292.4486   -266689.59            0   -266675.11    4795.5071 
     289    295.73692   -266689.75            0   -266675.11    5341.8818 
### NNP EW SUMMARY ### TS:        290 EW          0 EWPERSTEP  0.000E+00
     290    299.66105   -266689.95            0   -266675.12    5639.9818 
     291    302.57883    -266690.1            0   -266675.12    5692.2888 
     292    303.32746   -266690.14            0   -266675.12    5520.3164 
     293    301.81668   -266690.06            0   -266675.12    5147.8951 
     294    298.85945   -266689.91            0   -266675.12    4598.8519 
     295    295.41132   -266689.74            0   -266675.11    3908.8994 
     296    291.94836   -266689.57            0   -266675.11    3136.8659 
     297    288.54837    -266689.4            0   -266675.11    2361.4276 
     298    285.43247   -266689.24            0   -266675.11    1667.0942 
     299    283.21734   -266689.13            0   -266675.11    1132.8153 
### NNP EW SUMMARY ### TS:        300 EW          0 EWPERSTEP  0.000E+00
     300    282.50286    -266689.1            0   -266675.11    829.27721 
     301    283.22202   -266689.13            0   -266675.11    819.29398 
     302    284.46378    -266689.2            0   -266675.12    1149.9385 
     303    284.94501   -266689.23            0   -266675.12    1833.2845 
     304    283.80255   -266689.17            0   -266675.12    2824.7803 
     305    281.33584   -266689.04            0   -266675.11    4013.1167 
     306    279.12793   -266688.93            0   -266675.11    5233.1016 
     307    279.03414   -266688.92            0    -266675.1    6305.5457 
     308    281.65249   -266689.05            0   -266675.11    7088.5396 
     309    285.80258   -266689.27            0   -266675.12    7506.9155 
### NNP EW SUMMARY ### TS:        310 EW          0 EWPERSTEP  0.000E+00
     310    289.59761   -266689.46            0   -266675.12    7543.4809 
     311    291.95781   -266689.57            0   -266675.12    7212.3746 
     312    293.13871   -266689.63            0   -266675.11    6544.4624 
     313    294.05109   -266689.67            0   -266675.11    5593.0944 
     314    295.20032   -266689.73            0   -266675.11    4446.9177 
     315    296.17596   -266689.78            0   -266675.12    3230.9191 
     316    296.04023   -266689.78            0   -266675.12    2086.1385 
     317     294.2679   -266689.69            0   -266675.12    1136.2631 
     318    291.50995   -266689.54            0   -266675.11    460.21652 
     319     289.4531   -266689.44            0   -266675.11    87.317135 
### NNP EW SUMMARY ### TS:        320 EW          0 EWPERSTEP  0.000E+00
     320    289.59943   -266689.44            0   -266675.11    18.967475 
     321    291.95418   -266689.57            0   -266675.11    255.74899 
     322    295.02951   -266689.72            0   -266675.12    798.37172 
     323    297.19457   -266689.83            0   -266675.12    1620.7015 
     324    297.98437   -266689.87            0   -266675.12     2644.386 
     325    298.25664   -266689.88            0   -266675.11    3741.2923 
     326    299.25334   -266689.92            0   -266675.11    4764.2028 
     327    301.47347   -266690.04            0   -266675.11    5585.0714 
     328    304.35665   -266690.18            0   -266675.12    6117.1536 
     329    306.96818   -266690.31            0   -266675.12    6313.3186 
### NNP EW SUMMARY ### TS:        330 EW          0 EWPERSTEP  0.000E+00
     330    308.88999   -266690.41            0   -266675.12    6154.8154 
     331    310.50354   -266690.48            0   -266675.11    5647.6239 
     332    312.58111   -266690.59            0   -266675.11    4828.9577 
     333    315.53452   -266690.73            0   -266675.11    3777.3024 
     334    318.76634    -266690.9            0   -266675.12    2615.9634 
     335    320.68954      -266691            0   -266675.12    1496.8038 
     336    319.74697   -266690.95            0   -266675.12    561.09144 
     337    315.87052   -266690.76            0   -266675.12   -103.60526 
     338    310.99864   -266690.51            0   -266675.11   -479.65947 
     339    307.78097   -266690.34            0    -266675.1   -592.44302 
### NNP EW SUMMARY ### TS:        340 EW          0 EWPERSTEP  0.000E+00
     340    307.52018   -266690.33            0   -266675.11   -463.31846 
     341    309.45271   -266690.43            0   -266675.11   -89.349038 
     342    311.85825   -266690.56            0   -266675.12    535.85323 
     343    313.50271   -266690.64            0   -266675.12    1390.4813 
     344    314.13639   -266690.67            0   -266675.12    2410.9846 
     345    314.09558   -266690.66            0   -266675.11    3499.7615 
     346    313.73258   -266690.65            0   -266675.11    4543.1985 
     347    313.19532   -266690.62            0   -266675.11    5429.0562 
     348     312.5829   -266690.59            0   -266675.11    6058.8258 
     349    312.23218   -266690.57            0   -266675.11    6356.8068 
### NNP EW SUMMARY ### TS:        350 EW          0 EWPERSTEP  0.000E+00
     350    312.85691    -266690.6            0   -266675.11    6279.0052 
     351    315.29721   -266690.72            0   -266675.11    5823.7492 
     352    319.78725   -266690.94            0   -266675.11    5044.3659 
     353    325.16982   -266691.22            0   -266675.12    4054.9936 
     354    329.04638   -266691.42            0   -266675.13    3010.0572 
     355    329.28272   -266691.43            0   -266675.13    2054.1997 
     356    325.73125   -266691.25            0   -266675.12    1273.4106 
     357     320.5141   -266690.98            0   -266675.11     683.4104 
     358    316.54078   -266690.77            0    -266675.1    261.09034 
     359    315.59415   -266690.73            0    -266675.1   -9.1032213 
### NNP EW SUMMARY ### TS:        360 EW          0 EWPERSTEP  0.000E+00
     360    317.57439   -266690.83            0   -266675.11   -111.46711 
     361    321.13772   -266691.01            0   -266675.11   -8.9910591 
     362    324.70688   -266691.19            0   -266675.12    331.68089 
     363    327.06632   -266691.31            0   -266675.12    918.26542 
     364    327.60511   -266691.34            0   -266675.12    1718.8035 
     365    326.43974   -266691.28            0   -266675.12    2657.0942 
     366    324.34127   -266691.17            0   -266675.11     3621.159 
     367    322.39879   -266691.07            0   -266675.11    4484.1843 
     368    321.61671   -266691.03            0   -266675.11    5130.1063 
     369    322.64523   -266691.08            0   -266675.11     5475.513 
### NNP EW SUMMARY ### TS:        370 EW          0 EWPERSTEP  0.000E+00
     370    325.60851   -266691.23            0   -266675.11    5484.7659 
     371    329.91684   -266691.45            0   -266675.11    5177.4728 
     372    334.18695   -266691.66            0   -266675.12    4624.4167 
     373    336.62965   -266691.79            0   -266675.12    3926.6609 
     374    335.93009   -266691.76            0   -266675.13    3182.5702 
     375    332.00273   -266691.56            0   -266675.12    2460.8573 
     376    326.06603   -266691.26            0   -266675.11    1794.2101 
     377    320.09616   -266690.95            0   -266675.11    1191.7138 
     378    315.94416   -266690.75            0    -266675.1     661.8522 
     379     314.4931   -266690.68            0   -266675.11    234.36374 
### NNP EW SUMMARY ### TS:        380 EW          0 EWPERSTEP  0.000E+00
     380    315.37166   -266690.72            0   -266675.11   -34.011572 
     381    317.34847   -266690.82            0   -266675.11   -73.189219 
     382    318.99533   -266690.91            0   -266675.12    176.20523 
     383      319.199   -266690.92            0   -266675.12    739.36926 
     384    317.43036   -266690.83            0   -266675.12    1592.7458 
     385    313.86951   -266690.65            0   -266675.12    2661.2212 
     386    309.41068   -266690.43            0   -266675.11    3826.0627 
     387    305.48533   -266690.23            0   -266675.11    4943.1896 
     388    303.64666   -266690.14            0    -266675.1     5871.684 
     389    304.86573    -266690.2            0    -266675.1    6508.6869 
### NNP EW SUMMARY ### TS:        390 EW          0 EWPERSTEP  0.000E+00
     390    308.77721    -266690.4            0   -266675.11    6817.1733 
     391    313.57288   -266690.64            0   -266675.12    6827.7633 
     392    316.90778   -266690.81            0   -266675.12    6609.9067 
     393    317.16079   -266690.83            0   -266675.13    6231.5012 
     394    314.11108   -266690.67            0   -266675.12    5732.3401 
     395    308.83708    -266690.4            0   -266675.12    5120.9536 
     396    303.26024   -266690.12            0   -266675.11    4388.2352 
     397     299.5731   -266689.93            0    -266675.1    3529.3768 
     398     299.4122   -266689.92            0    -266675.1    2570.3169 
     399    302.97976   -266690.11            0   -266675.11    1588.7104 
### NNP EW SUMMARY ### TS:        400 EW          0 EWPERSTEP  0.000E+00
     400    308.84159    -266690.4            0   -266675.11    711.71741 
     401    314.65595    -266690.7            0   -266675.12    85.676463 
     402    318.25891   -266690.88            0   -266675.12   -167.73419 
     403     318.5319   -266690.89            0   -266675.12    10.257523 
     404    315.87121   -266690.75            0   -266675.12     595.1802 
     405    312.10423   -266690.56            0   -266675.11     1484.067 
     406    309.69079   -266690.43            0    -266675.1    2526.7645 
     407    310.45766   -266690.47            0    -266675.1    3573.7602 
     408    314.59419   -266690.68            0   -266675.11    4518.3275 
     409    320.61133   -266690.99            0   -266675.11    5310.8949 
### NNP EW SUMMARY ### TS:        410 EW          0 EWPERSTEP  0.000E+00
     410    326.28575   -266691.27            0   -266675.12    5941.7123 
     411    329.80793   -266691.45            0   -266675.12    6410.1137 
     412    330.35176   -266691.48            0   -266675.12    6702.7353 
     413    328.03151   -266691.36            0   -266675.12    6788.7849 
     414    323.65684   -266691.14            0   -266675.12    6627.8386 
     415    318.56758   -266690.88            0   -266675.11    6183.0559 
     416    314.52557   -266690.68            0    -266675.1    5435.2584 
     417    313.28237   -266690.61            0    -266675.1    4401.3744 
     418    315.57214   -266690.73            0   -266675.11    3158.3402 
     419    320.22977   -266690.97            0   -266675.11     1853.662 
### NNP EW SUMMARY ### TS:        420 EW          0 EWPERSTEP  0.000E+00
     420    324.52762   -266691.19            0   -266675.12    679.26509 
     421    325.70892   -266691.25            0   -266675.13    -185.6612 
     422    322.60985   -266691.09            0   -266675.12   -631.65316 
     423    316.38261   -266690.78            0   -266675.11   -647.35549 
     424     309.9642   -266690.45            0    -266675.1    -306.8503 
     425    306.52431   -266690.27            0    -266675.1    277.63508 
     426    307.69104   -266690.33            0    -266675.1     1012.965 
     427    312.65761   -266690.59            0   -266675.11    1858.5156 
     428    318.82458    -266690.9            0   -266675.12    2815.2723 
     429    323.45128   -266691.14            0   -266675.12    3883.5495 
### NNP EW SUMMARY ### TS:        430 EW          0 EWPERSTEP  0.000E+00
     430    325.03075   -266691.21            0   -266675.12    5024.2176 
     431    323.57882   -266691.14            0   -266675.12    6148.4533 
     432    319.96904   -266690.96            0   -266675.12    7135.9676 
     433    315.08635   -266690.71            0   -266675.12    7863.8752 
     434    309.70128   -266690.44            0   -266675.11    8225.7831 
     435    305.12169   -266690.21            0   -266675.11    8138.4906 
     436    303.38587   -266690.12            0    -266675.1     7556.822 
     437    305.94572   -266690.25            0    -266675.1    6509.3863 
     438    311.86502   -266690.55            0   -266675.11    5129.4573 
     439    317.76127   -266690.86            0   -266675.13    3636.9235 
### NNP EW SUMMARY ### TS:        440 EW          0 EWPERSTEP  0.000E+00
     440    319.94022   -266690.97            0   -266675.13    2266.2275 
     441     316.8391   -266690.81            0   -266675.13    1186.3002 
     442    309.94712   -266690.46            0   -266675.11    461.13991 
     443    302.84765   -266690.09            0    -266675.1    65.864623 
     444    299.13848    -266689.9            0    -266675.1   -60.072602 
     445    300.53627   -266689.98            0    -266675.1    41.871839 
     446    306.30767   -266690.27            0   -266675.11    374.00268 
     447    314.10901   -266690.66            0   -266675.11    968.25826 
     448    321.29869   -266691.03            0   -266675.12    1850.0761 
     449    325.86007   -266691.26            0   -266675.12    3004.4803 
### NNP EW SUMMARY ### TS:        450 EW          0 EWPERSTEP  0.000E+00
     450    326.78062    -266691.3            0   -266675.12    4357.4279 
     451    324.09599   -266691.17            0   -266675.12     5774.975 
     452    318.77964    -266690.9            0   -266675.12    7079.6916 
     453     312.5786   -266690.58            0   -266675.11    8079.6419 
     454    307.78127   -266690.34            0    -266675.1    8603.3397 
     455    306.67238   -266690.28            0    -266675.1    8539.0656 
     456    310.38224   -266690.47            0    -266675.1    7876.2224 
     457    317.58228   -266690.84            0   -266675.12    6730.2637 
     458    324.48251   -266691.19            0   -266675.13    5319.9522 
     459     326.9463   -266691.32            0   -266675.13     3889.653 
### NNP EW SUMMARY ### TS:        460 EW          0 EWPERSTEP  0.000E+00
     460    323.28461   -266691.13            0   -266675.13    2619.6206 
     461     315.3501   -266690.73            0   -266675.11    1582.2018 
     462    307.15623   -266690.31            0    -266675.1    765.14387 
     463    302.34968   -266690.07            0    -266675.1    135.45928 
     464    302.44255   -266690.07            0    -266675.1   -305.93157 
     465    306.66146   -266690.29            0   -266675.11   -510.97976 
     466    312.90181    -266690.6            0   -266675.11   -407.78925 
     467    318.81474    -266690.9            0   -266675.12    63.007237 
     468    322.50459   -266691.09            0   -266675.12    916.86733 
     469    322.88367   -266691.11            0   -266675.12    2105.8056 
### NNP EW SUMMARY ### TS:        470 EW          0 EWPERSTEP  0.000E+00
     470    319.89171   -266690.96            0   -266675.12     3514.069 
     471    314.55883   -266690.69            0   -266675.11     4971.221 
     472    308.72287   -266690.39            0   -266675.11    6281.1421 
     473    304.46224   -266690.18            0    -266675.1    7260.5688 
     474    303.46774   -266690.13            0    -266675.1    7777.5587 
     475    306.27881   -266690.27            0   -266675.11    7782.7235 
     476    311.50283   -266690.54            0   -266675.12     7325.969 
     477    316.01755   -266690.77            0   -266675.13    6541.8729 
     478    316.76748   -266690.81            0   -266675.13    5592.8677 
     479    312.87435   -266690.61            0   -266675.12    4599.6135 
### NNP EW SUMMARY ### TS:        480 EW          0 EWPERSTEP  0.000E+00
     480    306.19196   -266690.27            0   -266675.11    3610.5488 
     481    299.98757   -266689.95            0    -266675.1     2626.859 
     482    296.99313    -266689.8            0    -266675.1      1655.86 
     483    298.18879   -266689.86            0    -266675.1    753.36037 
     484    302.77237    -266690.1            0   -266675.11    25.118851 
     485     308.9321   -266690.41            0   -266675.11   -407.80315 
     486    314.81614    -266690.7            0   -266675.12   -447.32701 
     487    319.18166   -266690.92            0   -266675.12   -45.395869 
     488    321.47323   -266691.03            0   -266675.12    781.45915 
     489    321.54808   -266691.04            0   -266675.12    1953.0091 
### NNP EW SUMMARY ### TS:        490 EW          0 EWPERSTEP  0.000E+00
     490    319.50889   -266690.94            0   -266675.12    3336.9305 
     491    315.88933   -266690.75            0   -266675.11    4763.5654 
     492     311.9787   -266690.55            0   -266675.11    6044.4238 
     493    309.68262   -266690.44            0    -266675.1    7002.5796 
     494    310.49028   -266690.48            0    -266675.1    7516.5617 
     495     314.1049   -266690.66            0   -266675.11    7557.5651 
     496    318.15771   -266690.87            0   -266675.12    7189.0795 
     497    319.69628   -266690.96            0   -266675.13    6522.7509 
     498    317.29306   -266690.83            0   -266675.13    5662.3094 
     499    311.95079   -266690.56            0   -266675.12    4673.1292 
### NNP EW SUMMARY ### TS:        500 EW          0 EWPERSTEP  0.000E+00
     500    306.18503   -266690.27            0   -266675.11    3592.8669 
     501    302.23144   -266690.07            0   -266675.11    2467.8523 
     502    300.82647      -266690            0   -266675.11    1378.9206 
     503    301.29787   -266690.03            0   -266675.11    436.41241 
     504    302.57757   -266690.09            0   -266675.11   -248.63513 
     505    304.08496   -266690.17            0   -266675.11   -594.29796 
     506     305.7635   -266690.25            0   -266675.11   -559.86303 
     507    307.52557   -266690.34            0   -266675.11   -142.60018 
     508     308.8665   -266690.41            0   -266675.12    626.07849 
     509    309.06315   -266690.42            0   -266675.12    1677.3896 
### NNP EW SUMMARY ### TS:        510 EW          0 EWPERSTEP  0.000E+00
     510    307.79345   -266690.35            0   -266675.12    2901.0099 
     511    305.64956   -266690.24            0   -266675.11    4151.0006 
     512    303.94859   -266690.16            0   -266675.11    5269.8217 
     513    303.76666   -266690.15            0   -266675.11    6126.2654 
     514    305.05598   -266690.22            0   -266675.11    6645.1303 
     515    306.73213    -266690.3            0   -266675.12    6808.4116 
     516    307.43883   -266690.34            0   -266675.12    6638.0621 
     517    306.26264   -266690.28            0   -266675.12     6181.263 
     518    303.29623   -266690.13            0   -266675.12    5495.1181 
     519    299.81913   -266689.95            0   -266675.11    4630.8631 
### NNP EW SUMMARY ### TS:        520 EW          0 EWPERSTEP  0.000E+00
     520     297.5619   -266689.84            0   -266675.11    3637.8176 
     521    297.46025   -266689.83            0   -266675.11    2585.4231 
     522    299.11706   -266689.92            0   -266675.11    1575.2777 
     523    301.43049   -266690.04            0   -266675.11    725.22885 
     524    303.62581   -266690.14            0   -266675.11    134.30651 
     525    305.72351   -266690.25            0   -266675.11   -142.25443 
     526    308.15677   -266690.37            0   -266675.11   -90.534094 
     527    310.99428   -266690.51            0   -266675.11    276.19555 
     528    313.57678   -266690.64            0   -266675.12    923.45079 
     529    315.02869   -266690.71            0   -266675.12    1789.7975 
### NNP EW SUMMARY ### TS:        530 EW          0 EWPERSTEP  0.000E+00
     530    315.17702   -266690.72            0   -266675.11    2778.0608 
     531    314.85638    -266690.7            0   -266675.11     3761.041 
     532    315.19787   -266690.71            0   -266675.11    4609.9205 
     533    316.68359   -266690.79            0   -266675.11    5228.0012 
     534    318.88551    -266690.9            0   -266675.11    5567.2189 
     535    320.82473      -266691            0   -266675.12    5625.7554 
     536    321.48935   -266691.04            0   -266675.12    5435.3947 
     537    320.36419   -266690.98            0   -266675.12    5042.5444 
     538    317.77168   -266690.85            0   -266675.12    4491.7962 
     539    314.72746   -266690.69            0   -266675.11    3823.5516 
### NNP EW SUMMARY ### TS:        540 EW          0 EWPERSTEP  0.000E+00
     540     312.3526   -266690.57            0   -266675.11    3083.7704 
     541    311.24379   -266690.52            0   -266675.11    2333.3681 
     542    311.30665   -266690.52            0   -266675.11    1647.0261 
     543    312.19423   -266690.57            0   -266675.11    1099.6884 
     544    313.79358   -266690.65            0   -266675.11    750.17168 
     545    316.06751   -266690.76            0   -266675.11    634.87073 
     546    318.43983   -266690.88            0   -266675.12    770.76632 
     547    319.72104   -266690.95            0   -266675.12    1152.2238 
     548    319.02004   -266690.91            0   -266675.12    1735.3728 
     549     316.7725    -266690.8            0   -266675.11    2427.6589 
### NNP EW SUMMARY ### TS:        550 EW          0 EWPERSTEP  0.000E+00
     550    314.63295   -266690.68            0   -266675.11    3105.2377 
     551    314.14688   -266690.66            0   -266675.11    3655.4279 
     552      315.549   -266690.73            0   -266675.11    4013.8744 
     553    317.85285   -266690.85            0   -266675.12     4170.896 
     554    319.85748   -266690.95            0   -266675.12    4151.2307 
     555    320.86354      -266691            0   -266675.12    3990.9893 
     556    320.60016   -266690.99            0   -266675.12    3728.2389 
     557    318.96183   -266690.91            0   -266675.12    3399.9122 
     558    316.16573   -266690.77            0   -266675.12    3032.5357 
     559    312.99479   -266690.61            0   -266675.11    2635.0639 
### NNP EW SUMMARY ### TS:        560 EW          0 EWPERSTEP  0.000E+00
     560    310.52305   -266690.48            0   -266675.11    2207.6561 
     561    309.57038   -266690.43            0   -266675.11    1759.2517 
     562    310.50333   -266690.48            0   -266675.11    1316.1269 
     563    313.26579   -266690.62            0   -266675.11    920.60507 
     564    317.19761   -266690.82            0   -266675.11    629.47087 
     565    320.91438   -266691.01            0   -266675.12    506.79475 
     566    322.84821    -266691.1            0   -266675.12    600.42553 
     567    322.30253   -266691.07            0   -266675.12    912.48702 
     568    320.10366   -266690.96            0   -266675.11    1387.6662 
     569    318.08329   -266690.85            0   -266675.11    1932.6277 
### NNP EW SUMMARY ### TS:        570 EW          0 EWPERSTEP  0.000E+00
     570      317.704   -266690.84            0   -266675.11    2456.1961 
     571    319.11221   -266690.91            0   -266675.11    2901.2956 
     572    321.42061   -266691.03            0   -266675.12    3249.1624 
     573    323.58509   -266691.14            0   -266675.12    3504.0942 
     574     324.8234    -266691.2            0   -266675.12    3677.9323 
     575    324.50178   -266691.19            0   -266675.12    3780.8057 
     576    322.20592   -266691.07            0   -266675.12    3813.5801 
     577    318.24912   -266690.87            0   -266675.12    3760.4653 
     578    313.93563   -266690.65            0   -266675.11     3590.517 
     579    310.97179    -266690.5            0   -266675.11    3276.9178 
### NNP EW SUMMARY ### TS:        580 EW          0 EWPERSTEP  0.000E+00
     580    310.50707   -266690.48            0   -266675.11    2823.2185 
     581    312.68144   -266690.59            0   -266675.11    2275.8402 
[...]
    9774    309.75554   -266690.44            0   -266675.11     2968.658 
    9775    313.94051   -266690.65            0   -266675.11    1674.8397 
    9776    318.07763   -266690.87            0   -266675.12    441.58957 
    9777    319.98667   -266690.96            0   -266675.12   -529.38107 
    9778    318.52182   -266690.89            0   -266675.12   -1094.8275 
    9779    314.22088   -266690.67            0   -266675.11   -1204.0816 
### NNP EW SUMMARY ### TS:       9780 EW          0 EWPERSTEP  0.000E+00
    9780    308.90667    -266690.4            0   -266675.11   -896.12107 
    9781    304.75768   -266690.19            0    -266675.1    -268.8583 
    9782     303.4871   -266690.12            0    -266675.1    559.45613 
    9783    305.71728   -266690.24            0    -266675.1     1483.506 
    9784    310.59281   -266690.49            0   -266675.11    2430.1805 
    9785    316.01859   -266690.76            0   -266675.12    3356.4225 
    9786    319.62538   -266690.95            0   -266675.12    4227.5064 
    9787    319.83134   -266690.96            0   -266675.12    4992.3241 
    9788    316.35565   -266690.78            0   -266675.12    5573.1969 
    9789    310.19367   -266690.47            0   -266675.11    5873.8166 
### NNP EW SUMMARY ### TS:       9790 EW          0 EWPERSTEP  0.000E+00
    9790    303.27111   -266690.12            0   -266675.11    5801.2497 
    9791    297.79962   -266689.84            0    -266675.1    5297.1594 
    9792     295.4441   -266689.73            0    -266675.1    4369.2971 
    9793    296.59835   -266689.79            0    -266675.1    3110.9376 
    9794     300.0994   -266689.97            0   -266675.11    1696.8469 
    9795    303.68523   -266690.15            0   -266675.12    349.67352 
    9796     305.1327   -266690.23            0   -266675.12   -715.53906 
    9797    303.34355   -266690.14            0   -266675.12   -1345.1338 
    9798    298.64638    -266689.9            0   -266675.12    -1475.957 
    9799    292.47248   -266689.59            0   -266675.11   -1136.3266 
### NNP EW SUMMARY ### TS:       9800 EW          0 EWPERSTEP  0.000E+00
    9800    286.98234   -266689.31            0    -266675.1   -427.78191 
    9801    284.54561   -266689.18            0    -266675.1    508.07966 
    9802    286.66267   -266689.29            0    -266675.1    1534.7956 
    9803    292.84075    -266689.6            0   -266675.11    2560.7699 
    9804    300.57991      -266690            0   -266675.12    3547.1541 
    9805    306.68973   -266690.31            0   -266675.12    4478.3256 
    9806    308.90984   -266690.42            0   -266675.13    5319.7651 
    9807    306.82755   -266690.31            0   -266675.12    5994.1489 
    9808    301.87419   -266690.06            0   -266675.11      6388.28 
    9809    296.60667   -266689.79            0    -266675.1    6384.8583 
### NNP EW SUMMARY ### TS:       9810 EW          0 EWPERSTEP  0.000E+00
    9810    293.57249   -266689.63            0    -266675.1     5906.281 
    9811    294.20071   -266689.67            0    -266675.1    4954.4046 
    9812    298.19667   -266689.87            0   -266675.11    3628.8717 
    9813    303.73395   -266690.15            0   -266675.11     2113.077 
    9814    308.40116   -266690.39            0   -266675.12    629.88578 
    9815    310.37745   -266690.49            0   -266675.12   -614.76994 
    9816    309.11276   -266690.42            0   -266675.12   -1475.8633 
    9817    305.31431   -266690.23            0   -266675.11   -1888.4746 
    9818    300.62517   -266689.99            0   -266675.11   -1866.1111 
    9819    297.19653   -266689.81            0    -266675.1   -1483.0726 
### NNP EW SUMMARY ### TS:       9820 EW          0 EWPERSTEP  0.000E+00
    9820    296.97154    -266689.8            0    -266675.1   -842.03277 
    9821    300.75463   -266689.99            0    -266675.1   -36.798853 
    9822    307.60616   -266690.34            0   -266675.11    871.05701 
    9823    315.05641   -266690.72            0   -266675.12    1849.7622 
    9824     320.1823   -266690.98            0   -266675.13    2870.8341 
    9825    321.07982   -266691.02            0   -266675.13    3874.3767 
    9826    317.91071   -266690.86            0   -266675.12     4751.359 
    9827    312.81438    -266690.6            0   -266675.11     5359.162 
    9828     308.6648   -266690.38            0    -266675.1     5566.074 
    9829    307.45885   -266690.32            0    -266675.1    5303.3014 
### NNP EW SUMMARY ### TS:       9830 EW          0 EWPERSTEP  0.000E+00
    9830    309.35231   -266690.42            0   -266675.11    4597.3202 
    9831    312.81182    -266690.6            0   -266675.11    3566.0548 
    9832    315.59554   -266690.74            0   -266675.12    2382.3715 
    9833    315.94026   -266690.76            0   -266675.12    1223.7973 
    9834    313.37609   -266690.63            0   -266675.12    230.88896 
    9835    308.78938    -266690.4            0   -266675.11   -511.59161 
    9836    303.79205   -266690.15            0   -266675.11   -970.23699 
    9837     299.9198   -266689.95            0    -266675.1   -1146.4422 
    9838    298.16175   -266689.86            0    -266675.1   -1059.9475 
    9839      298.873    -266689.9            0    -266675.1   -737.89071 
### NNP EW SUMMARY ### TS:       9840 EW          0 EWPERSTEP  0.000E+00
    9840    301.76382   -266690.05            0   -266675.11    -208.5267 
    9841    305.75693   -266690.25            0   -266675.11      501.921 
    9842    309.00298   -266690.42            0   -266675.12    1365.2752 
    9843    309.55908   -266690.45            0   -266675.12    2334.3956 
    9844    306.62368    -266690.3            0   -266675.12    3320.1964 
    9845    301.38637   -266690.03            0   -266675.11    4185.6266 
    9846    296.56285   -266689.78            0    -266675.1    4774.8088 
    9847    294.73963   -266689.69            0    -266675.1    4969.1912 
    9848    296.75466    -266689.8            0    -266675.1     4737.726 
    9849    301.29104   -266690.03            0   -266675.11    4149.9533 
### NNP EW SUMMARY ### TS:       9850 EW          0 EWPERSTEP  0.000E+00
    9850    305.75147   -266690.26            0   -266675.12    3347.5142 
    9851    307.63968   -266690.35            0   -266675.12    2493.3257 
    9852    305.75005   -266690.26            0   -266675.12    1721.5293 
    9853      300.739      -266690            0   -266675.11    1106.3596 
    9854    294.74337    -266689.7            0   -266675.11     661.7433 
    9855    290.17348   -266689.47            0    -266675.1    368.48134 
    9856    288.52024   -266689.39            0    -266675.1    208.10163 
    9857    289.97215   -266689.46            0    -266675.1    181.46662 
    9858    293.77623   -266689.65            0   -266675.11    306.81641 
    9859    298.72354    -266689.9            0   -266675.11    606.18056 
### NNP EW SUMMARY ### TS:       9860 EW          0 EWPERSTEP  0.000E+00
    9860    303.38022   -266690.14            0   -266675.12    1090.6752 
    9861    306.21202   -266690.28            0   -266675.12    1747.3727 
    9862    306.02697   -266690.27            0   -266675.12    2524.7314 
    9863    302.79384   -266690.11            0   -266675.12    3320.9671 
    9864    298.13615   -266689.87            0   -266675.11    3991.4317 
    9865    294.73318   -266689.69            0    -266675.1    4385.9616 
    9866     294.8288    -266689.7            0    -266675.1    4404.3445 
    9867    298.91474    -266689.9            0    -266675.1    4039.9457 
    9868    305.42536   -266690.23            0   -266675.11    3386.0978 
    9869    311.49624   -266690.54            0   -266675.12    2602.1042 
### NNP EW SUMMARY ### TS:       9870 EW          0 EWPERSTEP  0.000E+00
    9870    314.40308   -266690.69            0   -266675.13    1855.2065 
    9871    313.05506   -266690.62            0   -266675.12    1263.6065 
    9872    308.65458   -266690.39            0   -266675.11    866.65437 
    9873    303.94543   -266690.15            0    -266675.1    636.87986 
    9874    301.52009   -266690.03            0    -266675.1    522.91264 
    9875    302.45437   -266690.08            0    -266675.1    491.94255 
    9876    306.11748   -266690.26            0   -266675.11    545.76119 
    9877    310.92184   -266690.51            0   -266675.11    707.95635 
    9878    315.30156   -266690.73            0   -266675.12    997.45622 
    9879    318.36112   -266690.88            0   -266675.12    1406.8617 
### NNP EW SUMMARY ### TS:       9880 EW          0 EWPERSTEP  0.000E+00
    9880    319.90482   -266690.95            0   -266675.12    1896.7175 
    9881    320.05058   -266690.96            0   -266675.12    2403.5271 
    9882      318.999   -266690.91            0   -266675.11    2851.4939 
    9883    317.18859   -266690.81            0   -266675.11    3162.7207 
    9884    315.47845   -266690.73            0   -266675.11    3269.4246 
    9885    314.89748    -266690.7            0   -266675.11    3132.3594 
    9886    315.94017   -266690.75            0   -266675.11    2761.3327 
    9887    317.97469   -266690.86            0   -266675.11    2223.9759 
    9888     319.4527   -266690.93            0   -266675.12    1629.9923 
    9889     318.9546   -266690.91            0   -266675.12     1093.993 
### NNP EW SUMMARY ### TS:       9890 EW          0 EWPERSTEP  0.000E+00
    9890    316.23306   -266690.77            0   -266675.12    698.37321 
    9891    312.32323   -266690.57            0   -266675.11    478.99812 
    9892    308.68585   -266690.39            0   -266675.11    437.05813 
    9893    306.23294   -266690.27            0   -266675.11    559.73957 
    9894    304.98128   -266690.21            0   -266675.11    832.02073 
    9895    304.35433   -266690.18            0   -266675.11    1235.3917 
    9896     303.7505   -266690.15            0   -266675.11    1738.8152 
    9897    303.02157   -266690.11            0   -266675.11    2290.8845 
    9898    302.54705   -266690.09            0   -266675.11    2823.0282 
    9899    302.76018    -266690.1            0   -266675.11    3266.1127 
### NNP EW SUMMARY ### TS:       9900 EW          0 EWPERSTEP  0.000E+00
    9900    303.53009   -266690.14            0   -266675.11    3569.6094 
    9901    304.10282   -266690.17            0   -266675.12    3708.1225 
    9902    303.74856   -266690.15            0   -266675.12    3672.1897 
    9903     302.4754   -266690.09            0   -266675.11    3457.1507 
    9904    301.06334   -266690.01            0   -266675.11    3065.5645 
    9905    300.36639   -266689.98            0   -266675.11    2522.8777 
    9906    300.60676   -266689.99            0   -266675.11    1890.4313 
    9907    301.33331   -266690.03            0   -266675.11    1260.4546 
    9908     301.9161   -266690.06            0   -266675.11    734.49839 
    9909    301.94114   -266690.06            0   -266675.11    399.75383 
### NNP EW SUMMARY ### TS:       9910 EW          0 EWPERSTEP  0.000E+00
    9910    301.21405   -266690.03            0   -266675.11    313.81878 
    9911    299.67585   -266689.95            0   -266675.11    496.29736 
    9912    297.51395   -266689.84            0   -266675.11    924.28993 
    9913    295.25129   -266689.73            0   -266675.11     1536.044 
    9914    293.51176   -266689.64            0   -266675.11    2245.7503 
    9915    292.66052    -266689.6            0   -266675.11    2962.0501 
    9916      292.776    -266689.6            0   -266675.11    3599.4821 
    9917    293.90677   -266689.66            0   -266675.11    4084.0112 
    9918    296.07467   -266689.77            0   -266675.11    4361.9842 
    9919    298.94044   -266689.91            0   -266675.11    4411.2867 
### NNP EW SUMMARY ### TS:       9920 EW          0 EWPERSTEP  0.000E+00
    9920    301.71888   -266690.05            0   -266675.11    4242.9544 
    9921     303.6044   -266690.15            0   -266675.12    3889.6847 
    9922    304.24932   -266690.18            0   -266675.11    3390.7615 
    9923    303.89289   -266690.16            0   -266675.11    2783.7914 
    9924    303.20105   -266690.12            0   -266675.11    2106.1364 
    9925    302.97461   -266690.11            0   -266675.11     1402.251 
    9926    303.82203   -266690.15            0   -266675.11    730.07382 
    9927    305.90416   -266690.25            0   -266675.11    160.99152 
    9928    308.81329    -266690.4            0   -266675.11   -227.39837 
    9929    311.65361   -266690.54            0   -266675.11   -364.29765 
### NNP EW SUMMARY ### TS:       9930 EW          0 EWPERSTEP  0.000E+00
    9930    313.39188   -266690.63            0   -266675.12     -203.357 
    9931    313.35917   -266690.63            0   -266675.12    259.85372 
    9932    311.64005   -266690.54            0   -266675.11    978.21094 
    9933    309.10239   -266690.41            0   -266675.11    1857.2159 
    9934    306.93226    -266690.3            0   -266675.11    2775.3083 
    9935    305.91464   -266690.25            0   -266675.11    3613.3624 
    9936    306.06296   -266690.26            0   -266675.11    4276.5886 
    9937    306.86137    -266690.3            0   -266675.11    4700.1262 
    9938    307.73184   -266690.35            0   -266675.11    4846.2903 
    9939     308.2825   -266690.38            0   -266675.11    4703.2488 
### NNP EW SUMMARY ### TS:       9940 EW          0 EWPERSTEP  0.000E+00
    9940    308.27789   -266690.38            0   -266675.11    4285.8846 
    9941    307.57377   -266690.34            0   -266675.11    3634.2164 
    9942    306.26701   -266690.27            0   -266675.11    2806.5771 
    9943     304.9078    -266690.2            0   -266675.11    1871.9502 
    9944    304.32757   -266690.17            0   -266675.11    909.46027 
    9945     305.0729   -266690.21            0   -266675.11    12.717299 
    9946    307.00264   -266690.31            0   -266675.11   -713.45301 
    9947    309.43112   -266690.43            0   -266675.11   -1169.4859 
    9948    311.61002   -266690.54            0   -266675.11   -1283.0154 
    9949    313.09021   -266690.61            0   -266675.11   -1025.0758 
### NNP EW SUMMARY ### TS:       9950 EW          0 EWPERSTEP  0.000E+00
    9950    313.76418   -266690.65            0   -266675.11   -415.73873 
    9951    313.77422   -266690.65            0   -266675.11    478.76174 
    9952    313.49117   -266690.63            0   -266675.11    1554.9341 
    9953    313.46133   -266690.63            0   -266675.11    2687.5277 
    9954    314.11964   -266690.66            0   -266675.11    3750.7242 
    9955    315.39477   -266690.73            0   -266675.11    4638.0433 
    9956    316.64508   -266690.79            0   -266675.11    5271.8158 
    9957     317.1369   -266690.82            0   -266675.12     5600.268 
    9958     316.6197   -266690.79            0   -266675.11    5592.0648 
    9959    315.39451   -266690.73            0   -266675.11    5238.7754 
### NNP EW SUMMARY ### TS:       9960 EW          0 EWPERSTEP  0.000E+00
    9960    313.97898   -266690.65            0   -266675.11    4562.2313 
    9961    312.90041    -266690.6            0   -266675.11    3617.2676 
    9962    312.63739   -266690.59            0   -266675.11    2489.8287 
    9963    313.38025   -266690.62            0   -266675.11    1294.2728 
    9964    314.77598   -266690.69            0   -266675.11    165.37594 
    9965    316.09223   -266690.76            0   -266675.11   -760.89006 
    9966    316.71795   -266690.79            0   -266675.11   -1373.3765 
    9967    316.53288   -266690.78            0   -266675.11   -1606.8639 
    9968    315.87205   -266690.75            0   -266675.11   -1449.9672 
    9969    315.21699   -266690.71            0   -266675.11   -939.43128 
### NNP EW SUMMARY ### TS:       9970 EW          0 EWPERSTEP  0.000E+00
    9970    314.96806    -266690.7            0   -266675.11   -147.94857 
    9971    315.43494   -266690.72            0   -266675.11    828.44304 
    9972    316.80248   -266690.79            0   -266675.11    1884.3866 
    9973    318.89657    -266690.9            0   -266675.11    2920.5939 
    9974     321.0081   -266691.01            0   -266675.12    3853.5639 
    9975    322.10055   -266691.06            0   -266675.12    4614.6829 
    9976    321.33715   -266691.03            0   -266675.12    5143.2326 
    9977    318.60997   -266690.89            0   -266675.12    5381.5989 
    9978    314.74386   -266690.69            0   -266675.11    5279.4568 
    9979    311.17159   -266690.51            0   -266675.11    4809.8625 
### NNP EW SUMMARY ### TS:       9980 EW          0 EWPERSTEP  0.000E+00
    9980    309.22507   -266690.41            0    -266675.1    3990.4673 
    9981    309.47266   -266690.43            0   -266675.11    2897.1924 
    9982    311.44127   -266690.53            0   -266675.11    1662.4913 
    9983    313.83039   -266690.65            0   -266675.11    455.40605 
    9984     315.1768   -266690.72            0   -266675.12   -554.72431 
    9985    314.69996   -266690.69            0   -266675.12   -1238.6777 
    9986    312.77466    -266690.6            0   -266675.11   -1532.8665 
    9987    310.60174   -266690.48            0   -266675.11   -1438.4744 
    9988    309.34014   -266690.42            0   -266675.11   -1000.4012 
    9989    309.51456   -266690.43            0   -266675.11   -285.09015 
### NNP EW SUMMARY ### TS:       9990 EW          0 EWPERSTEP  0.000E+00
    9990    311.11184   -266690.51            0   -266675.11    630.42043 
    9991    313.87097   -266690.65            0   -266675.11    1663.9493 
    9992    317.18371   -266690.82            0   -266675.11    2737.0206 
    9993    319.89358   -266690.95            0   -266675.12    3781.1603 
    9994    320.68504      -266691            0   -266675.12    4730.6149 
    9995    318.97093   -266690.91            0   -266675.12    5507.9068 
    9996    315.37517   -266690.73            0   -266675.11     6022.382 
    9997    311.27667   -266690.52            0   -266675.11    6190.4625 
    9998    307.90485   -266690.35            0   -266675.11    5965.3128 
    9999    305.81202   -266690.25            0   -266675.11    5356.7502 
### NNP EW SUMMARY ### TS:      10000 EW          0 EWPERSTEP  0.000E+00
   10000    304.94714   -266690.21            0   -266675.11    4433.3098 
Loop time of 1238.98 on 1 procs for 10000 steps with 384 atoms

Performance: 0.349 ns/day, 68.832 hours/ns, 8.071 timesteps/s
100.0% CPU use with 1 MPI tasks x no OpenMP threads

MPI task timing breakdown:
Section |  min time  |  avg time  |  max time  |%varavg| %total
---------------------------------------------------------------
Pair    | 1237.8     | 1237.8     | 1237.8     |   0.0 | 99.91
Neigh   | 0.37995    | 0.37995    | 0.37995    |   0.0 |  0.03
Comm    | 0.17693    | 0.17693    | 0.17693    |   0.0 |  0.01
Output  | 0.54137    | 0.54137    | 0.54137    |   0.0 |  0.04
Modify  | 0.043383   | 0.043383   | 0.043383   |   0.0 |  0.00
Other   |            | 0.02281    |            |       |  0.00

Nlocal:        384.000 ave         384 max         384 min
Histogram: 1 0 0 0 0 0 0 0 0 0
Nghost:        2988.00 ave        2988 max        2988 min
Histogram: 1 0 0 0 0 0 0 0 0 0
Neighs:        0.00000 ave           0 max           0 min
Histogram: 1 0 0 0 0 0 0 0 0 0
FullNghs:      91212.0 ave       91212 max       91212 min
Histogram: 1 0 0 0 0 0 0 0 0 0

Total # of neighbors = 91212
Ave neighs/atom = 237.53125
Neighbor list builds = 183
Dangerous builds = 0

# Closing commands
write_data final_configuration.data
System init for write_data ...
Total wall time: 0:20:39
