begin
comment source_file_name=OUTCAR_10_1
lattice 15.445575319 0.000000000 0.000000000
lattice -0.149421248 12.066848676 0.000000000
lattice -5.928026519 0.184304028 12.088606068
atom 9.84087 0.90673 10.31919 S 0.0 0.0 0.376511 0.662255 -0.145298
atom -3.34509 7.34606 7.65405 S 0.0 0.0 0.572479 -0.381218 0.498544
atom -0.45682 10.93936 1.80481 S 0.0 0.0 0.623847 0.048895 -0.012586
atom 12.67988 4.98912 4.39238 S 0.0 0.0 0.844403 0.025966 -0.118894
atom 12.37278 1.28106 4.25043 S 0.0 0.0 0.190745 -0.454357 0.096459
atom -0.14654 6.91092 1.68716 S 0.0 0.0 -0.255352 0.341671 -0.260373
atom -3.27531 11.45333 7.85527 S 0.0 0.0 0.206083 -0.442304 -0.814123
atom 9.27295 5.20581 10.54467 S 0.0 0.0 0.009086 0.189689 -0.377300
atom 9.10441 1.26238 6.10622 S 0.0 0.0 -0.261907 -0.562144 -0.203685
atom 3.30609 7.15328 0.03969 S 0.0 0.0 -0.835625 0.170111 -0.829566
atom 0.24861 11.31172 5.86635 S 0.0 0.0 -0.122738 0.099361 0.248465
atom 11.94209 4.90493 0.31257 S 0.0 0.0 0.066629 0.231189 -0.830030
atom 12.15097 0.84013 0.02774 S 0.0 0.0 -0.322363 0.748499 -0.398830
atom 0.33443 7.22816 5.77303 S 0.0 0.0 -0.244446 0.949318 0.121040
atom -2.69972 11.41253 11.98899 S 0.0 0.0 0.307395 -0.293492 -0.938006
atom 9.24291 5.39583 5.90090 S 0.0 0.0 -0.038055 -0.297076 0.216673
atom 3.52298 1.10088 7.37627 S 0.0 0.0 -0.584003 0.030342 -0.464472
atom 3.04757 7.25399 10.80939 S 0.0 0.0 0.662146 0.232270 -1.153140
atom 5.82930 11.02211 4.58984 S 0.0 0.0 0.276410 0.011996 0.361382
atom 6.22039 4.99080 1.37388 S 0.0 0.0 -0.481777 -0.763021 -0.003084
atom 6.65631 0.67289 1.16262 S 0.0 0.0 -0.543160 0.621661 0.194014
atom 6.14923 6.91593 5.00525 S 0.0 0.0 -0.025023 0.686688 -0.128178
atom 3.19782 11.37723 10.90053 S 0.0 0.0 -0.303767 0.031802 0.549889
atom 3.08278 5.19089 7.29780 S 0.0 0.0 0.056963 -0.015552 -0.407917
atom -0.08283 0.97618 9.41453 S 0.0 0.0 -0.060147 0.015191 -0.132466
atom 6.59651 6.91686 8.82650 S 0.0 0.0 -0.420981 0.047563 -0.435856
atom 9.51345 11.34415 2.66251 S 0.0 0.0 -0.100965 0.086358 -0.306456
atom 2.85464 5.06079 3.49156 S 0.0 0.0 -0.011018 -0.357570 -0.339283
atom 2.65030 1.06389 3.24195 S 0.0 0.0 0.211867 -0.909257 0.588687
atom 9.91097 7.15428 2.57763 S 0.0 0.0 -0.167733 -0.430136 0.072103
atom 6.92247 11.13743 8.70613 S 0.0 0.0 0.086541 0.437918 -0.295710
atom -0.57174 5.38237 9.54412 S 0.0 0.0 -0.098502 -0.405559 -0.511863
atom 6.17653 3.11738 8.83890 S 0.0 0.0 0.001909 0.256928 -0.229438
atom -0.05307 9.18791 9.30395 S 0.0 0.0 0.109276 -0.024177 -0.080810
atom 2.87474 8.76924 3.23641 S 0.0 0.0 -0.097846 0.312403 0.680888
atom 9.31896 3.31312 2.74291 S 0.0 0.0 0.043718 0.330688 0.163746
atom 5.80970 2.92879 5.03736 S 0.0 0.0 -0.036670 -0.465360 -0.987068
atom 6.47327 8.80735 0.98017 S 0.0 0.0 0.415412 -0.856762 0.271186
atom 3.50715 9.41535 6.82490 S 0.0 0.0 -0.225978 -0.018022 0.478676
atom 2.68330 3.36022 10.91192 S 0.0 0.0 0.301369 0.212933 -0.005829
atom 0.28897 3.01195 5.76471 S 0.0 0.0 -0.681640 0.004735 0.103119
atom 12.08978 8.88971 0.31777 S 0.0 0.0 0.052963 0.238171 0.203425
atom 9.04201 9.48384 6.32159 S 0.0 0.0 0.730696 0.190451 -0.373719
atom -2.57624 3.43048 11.98366 S 0.0 0.0 0.152091 0.474184 -0.194266
atom -0.15998 2.67516 1.65869 S 0.0 0.0 -0.083719 0.011629 -0.135688
atom 12.50414 9.28146 4.27854 S 0.0 0.0 0.171894 -0.610055 -0.172051
atom 9.47319 9.44242 10.48039 S 0.0 0.0 -0.559628 0.179316 0.063894
atom -3.01198 3.47641 7.74528 S 0.0 0.0 0.153448 -0.182723 0.268162
atom 11.38461 3.15554 3.75300 Cu 0.0 0.0 -0.527077 0.255661 -0.626766
atom 0.74203 9.02230 2.36177 Cu 0.0 0.0 0.292038 -0.166998 0.065503
atom -2.37618 9.40744 8.30026 Cu 0.0 0.0 0.119223 -0.265325 -0.003732
atom 8.32137 3.43748 9.48454 Cu 0.0 0.0 -0.044458 0.010993 0.512295
atom 5.58592 0.80727 8.16448 Cu 0.0 0.0 0.418307 0.018230 0.359903
atom 1.05788 6.89332 9.82750 Cu 0.0 0.0 -0.228295 0.581111 0.284130
atom 3.69983 11.04240 3.29035 Cu 0.0 0.0 0.123453 -0.058349 0.112027
atom 8.26140 5.44569 2.08809 Cu 0.0 0.0 0.647171 -0.252560 -0.263038
atom 8.71034 1.32463 1.98982 Cu 0.0 0.0 -0.115785 -0.117253 0.105701
atom 4.14430 6.90894 4.00943 Cu 0.0 0.0 -0.432130 0.178230 0.102449
atom 1.19389 11.14004 9.85372 Cu 0.0 0.0 0.080137 -0.263823 0.005815
atom 5.14226 5.21593 8.14942 Cu 0.0 0.0 0.300274 -0.225357 0.044884
atom 5.45821 2.67225 0.82007 Cu 0.0 0.0 0.104631 0.384282 0.320751
atom 7.28022 9.16477 5.02813 Cu 0.0 0.0 -0.259667 -0.239413 0.183983
atom 4.19492 9.32884 11.30833 Cu 0.0 0.0 -0.201620 0.085081 -0.118025
atom 2.27496 3.00125 6.94885 Cu 0.0 0.0 -0.043806 0.122763 0.080399
atom -3.40852 1.46929 11.36988 Cu 0.0 0.0 -0.379629 -0.255033 -0.443035
atom 10.08317 7.48401 6.62827 Cu 0.0 0.0 -0.473156 -0.266531 -0.001641
atom 13.05681 11.11106 0.67807 Cu 0.0 0.0 -0.072757 -0.351895 0.266741
atom -0.51315 5.24924 5.35992 Cu 0.0 0.0 -0.290163 -0.866662 -0.214512
atom -1.09487 1.17315 5.23211 Cu 0.0 0.0 0.658844 -0.010489 0.167109
atom 13.05890 6.90188 0.71977 Cu 0.0 0.0 0.362661 -0.038122 0.192307
atom 10.38265 11.42948 6.44384 Cu 0.0 0.0 -0.372826 0.009208 0.254092
atom -4.20192 4.81380 11.28824 Cu 0.0 0.0 0.601481 -0.084480 0.137945
atom 8.33641 1.69820 11.86559 Cu 0.0 0.0 0.358132 0.190132 -0.064934
atom -1.94020 7.93322 5.87460 Cu 0.0 0.0 0.064240 0.182549 -0.012286
atom 1.05939 10.51663 0.02817 Cu 0.0 0.0 -0.034445 0.108296 0.321088
atom 11.26888 4.27121 5.99081 Cu 0.0 0.0 -0.520188 0.886420 0.332536
atom 11.33487 1.88943 6.35654 Cu 0.0 0.0 0.065140 -0.415616 0.127923
atom -4.79049 8.07174 11.64031 Cu 0.0 0.0 0.779521 -0.543393 0.636935
atom -2.11591 10.71171 5.86458 Cu 0.0 0.0 0.190132 -0.084132 0.181750
atom 14.16317 4.19566 0.42782 Cu 0.0 0.0 -0.137483 -0.067233 -0.134809
atom 9.24465 3.20303 7.28666 Cu 0.0 0.0 0.625072 0.748642 -0.504150
atom 3.26582 9.29503 1.12147 Cu 0.0 0.0 -0.182358 0.072819 -0.273156
atom 0.06381 9.28560 6.99308 Cu 0.0 0.0 -0.186726 0.026777 -0.119225
atom 6.15835 3.16987 11.13746 Cu 0.0 0.0 0.172580 -0.121168 0.047831
atom 1.02923 1.82477 11.21062 Cu 0.0 0.0 0.094471 0.032535 -0.267376
atom 5.29389 8.03451 7.26467 Cu 0.0 0.0 -0.179162 -0.197098 -0.155370
atom 8.18553 10.33177 0.91104 Cu 0.0 0.0 0.208027 0.019529 -0.098183
atom 4.05698 4.29783 5.42016 Cu 0.0 0.0 0.031937 0.084124 -0.063762
atom 3.91813 1.36283 5.11702 Cu 0.0 0.0 0.078133 0.138620 0.021661
atom 8.46361 7.63205 0.75794 Cu 0.0 0.0 0.105144 0.285482 0.754298
atom 5.45589 10.61937 7.04917 Cu 0.0 0.0 0.285362 -0.272760 -0.341824
atom 0.80296 4.66744 11.31915 Cu 0.0 0.0 -0.213817 0.044166 -0.267227
atom -1.17299 2.99487 10.18284 Cu 0.0 0.0 0.207873 -0.105751 0.088820
atom 7.65736 8.73868 7.91780 Cu 0.0 0.0 -0.067522 0.121063 -0.021601
atom 10.33760 9.34656 1.98702 Cu 0.0 0.0 0.054945 0.041506 -0.576494
atom 2.05180 2.97426 4.35194 Cu 0.0 0.0 0.076505 0.377971 -0.265385
atom 8.52658 0.98875 8.36169 Cu 0.0 0.0 0.212074 -0.231042 0.051458
atom -2.51003 7.03693 9.79919 Cu 0.0 0.0 -0.163763 -0.173536 0.177974
atom 0.74118 11.62495 3.63431 Cu 0.0 0.0 -0.234760 0.349186 -0.155815
atom 11.71061 5.43305 2.45601 Cu 0.0 0.0 -0.328718 0.292227 0.017290
atom 11.30088 1.02556 2.01783 Cu 0.0 0.0 -0.238391 -0.193504 0.494044
atom 1.22333 6.59727 3.78636 Cu 0.0 0.0 0.083011 0.669757 0.366979
atom -1.28153 10.91290 10.07594 Cu 0.0 0.0 -0.456887 0.411878 0.597622
atom 8.44644 5.81213 7.92098 Cu 0.0 0.0 -0.257274 -0.314407 -0.184770
atom -4.42312 2.52724 9.15829 Cu 0.0 0.0 -0.434545 -0.423939 0.347459
atom 10.59156 8.36466 8.93919 Cu 0.0 0.0 0.632262 0.119191 -0.210278
atom 13.68453 9.05391 2.20813 Cu 0.0 0.0 -0.492406 0.016439 0.458015
atom -1.13548 3.45891 3.48029 Cu 0.0 0.0 -0.375130 0.237062 0.346018
atom 6.10616 0.94784 3.44749 Cu 0.0 0.0 0.015571 0.281114 -0.163416
atom 6.12575 6.96990 2.54144 Cu 0.0 0.0 0.430019 0.092942 -0.113603
atom 3.50609 11.22411 8.69543 Cu 0.0 0.0 -0.157719 -0.352916 -0.431640
atom 2.78359 5.17630 9.51347 Cu 0.0 0.0 0.364014 -0.229303 0.153513
atom 1.32788 0.56650 7.64949 Cu 0.0 0.0 -0.216114 -0.121119 -0.127602
atom 5.26679 6.47088 10.58995 Cu 0.0 0.0 -0.138452 -0.090828 0.383985
atom 8.22253 11.63132 4.47029 Cu 0.0 0.0 -0.228943 0.097023 0.235270
atom 3.92201 5.67782 1.53094 Cu 0.0 0.0 0.177942 -0.382766 0.437425
atom 3.96336 0.76103 1.34114 Cu 0.0 0.0 0.171239 -0.232434 0.557961
atom 8.22945 6.84978 4.02505 Cu 0.0 0.0 0.118285 0.495450 0.703912
atom 5.52128 11.66521 10.42137 Cu 0.0 0.0 -0.339954 -0.178981 -0.041919
atom 0.54479 5.97482 7.57382 Cu 0.0 0.0 -0.039014 -0.397351 0.458755
atom 3.91912 2.59015 9.12705 Cu 0.0 0.0 -0.256445 0.331185 -0.134539
atom 2.94552 8.64563 8.86091 Cu 0.0 0.0 0.086662 -0.129474 0.378350
atom 5.81528 9.38421 3.03421 Cu 0.0 0.0 -0.242755 0.313403 0.081074
atom 7.00070 3.51223 3.15529 Cu 0.0 0.0 -0.214186 -0.263428 -0.047112
atom 14.02824 0.83416 2.68348 Cu 0.0 0.0 0.212481 0.026500 -0.215545
atom -1.64701 6.76287 3.41928 Cu 0.0 0.0 0.094885 -0.038192 -0.106680
atom -4.65652 10.92449 9.45012 Cu 0.0 0.0 -0.205782 0.177266 0.129171
atom 10.80786 5.07685 8.68595 Cu 0.0 0.0 0.079441 -0.111499 0.006923
atom 3.94109 1.58944 11.43729 Cu 0.0 0.0 0.289022 -0.629404 0.356627
atom 2.63004 7.29402 6.57572 Cu 0.0 0.0 0.054499 0.116256 0.136293
atom 5.46578 10.73450 0.86924 Cu 0.0 0.0 -0.467811 0.672381 -0.185532
atom 6.91658 4.84484 5.48464 Cu 0.0 0.0 0.356305 0.039199 0.134964
atom 6.98829 2.38080 6.78877 Cu 0.0 0.0 0.443647 0.024867 0.315148
atom -0.89220 8.51649 11.37278 Cu 0.0 0.0 0.020739 0.199397 -0.495705
atom 1.90680 9.95276 4.92919 Cu 0.0 0.0 0.138544 -0.281872 0.311551
atom 10.03462 3.64807 0.63398 Cu 0.0 0.0 -0.147424 -0.122186 0.057264
atom 2.12744 2.50197 1.64734 Cu 0.0 0.0 -0.173718 0.408053 -0.265577
atom 10.21653 8.72481 4.36765 Cu 0.0 0.0 -0.139664 -0.061036 0.347145
atom 7.23842 9.90160 10.62285 Cu 0.0 0.0 -0.039851 -0.356827 -0.270601
atom -0.55822 3.65997 7.76312 Cu 0.0 0.0 -0.137811 0.228633 0.098914
atom -2.15740 1.24824 8.42861 Cu 0.0 0.0 0.179546 0.714043 0.157638
atom 8.59716 7.30637 9.88519 Cu 0.0 0.0 0.007366 0.040520 0.591319
atom 11.44815 11.29100 4.01555 Cu 0.0 0.0 -0.146060 -0.410338 -0.111801
atom 0.71758 4.88322 2.25639 Cu 0.0 0.0 -0.097180 -0.775733 -0.394634
energy -568.643297
charge 0.0
end
begin
comment source_file_name=OUTCAR_10_10
lattice 15.801985947 0.000000000 0.000000000
lattice -0.053712401 11.933537845 0.000000000
lattice -6.782905116 0.085498967 12.787807310
atom 9.31709 1.65643 10.88656 S 0.0 0.0 1.082921 -1.274520 0.828526
atom -3.53152 7.62153 8.37257 S 0.0 0.0 0.908557 -0.296360 0.316505
atom -0.33493 11.10081 1.84575 S 0.0 0.0 0.487157 0.967042 -0.410285
atom 13.02005 5.46758 4.65058 S 0.0 0.0 -0.349060 0.134735 -0.187998
atom 13.26829 1.55043 4.42270 S 0.0 0.0 -0.778767 0.611346 -0.215081
atom -0.02832 7.45028 2.07791 S 0.0 0.0 -0.409694 -0.249415 -0.402960
atom -3.57352 11.49205 8.15174 S 0.0 0.0 -0.174670 0.220303 0.319566
atom 9.46379 5.49003 11.06644 S 0.0 0.0 0.446575 -0.453044 -0.238262
atom 9.16133 1.52265 6.60859 S 0.0 0.0 -0.625051 1.185396 0.426123
atom -3.08230 7.33751 12.70918 S 0.0 0.0 0.270121 1.253464 -1.113683
atom 0.31799 11.36976 6.17105 S 0.0 0.0 0.241090 0.194767 -0.145028
atom 12.50471 5.11329 0.59871 S 0.0 0.0 0.258722 0.882899 -0.237254
atom 12.76280 1.32182 0.41982 S 0.0 0.0 0.127313 0.119804 -0.101944
atom 0.19418 7.71322 6.32145 S 0.0 0.0 0.707833 -0.923332 0.154393
atom -3.41734 11.41011 12.44952 S 0.0 0.0 0.213208 -0.487853 -0.132306
atom 9.16666 5.47697 7.07363 S 0.0 0.0 0.643843 -0.717830 0.350228
atom 3.38555 1.40656 7.66987 S 0.0 0.0 -0.241574 0.421880 0.016264
atom 2.77316 7.53120 11.63212 S 0.0 0.0 0.122876 -0.371528 0.061003
atom 6.18266 11.43619 5.09246 S 0.0 0.0 0.084110 0.132762 -0.035987
atom 6.80358 5.36923 1.47505 S 0.0 0.0 0.299439 0.374448 0.050462
atom 6.63763 1.60841 1.10128 S 0.0 0.0 0.434629 -0.874567 0.483786
atom 6.40847 7.52148 5.23602 S 0.0 0.0 -0.697045 -0.127758 0.463262
atom 2.54414 11.42645 11.33935 S 0.0 0.0 0.081189 0.337616 0.081570
atom 3.35045 5.50831 7.60163 S 0.0 0.0 -0.118328 -0.351450 0.480365
atom -0.47947 1.53783 9.82984 S 0.0 0.0 0.068775 -0.776558 0.257826
atom 6.26051 7.32081 9.63181 S 0.0 0.0 0.181417 0.721020 -0.141523
atom 9.78058 11.46039 3.04108 S 0.0 0.0 0.151222 -0.720183 -0.035535
atom 3.13231 5.49233 3.71362 S 0.0 0.0 -0.685831 0.057561 0.787527
atom 3.14411 1.40353 3.52646 S 0.0 0.0 0.327758 0.311354 -0.842736
atom 9.63659 7.36472 3.00325 S 0.0 0.0 0.206224 -0.181238 0.378430
atom 6.47599 11.29030 9.46040 S 0.0 0.0 -0.246532 -0.342542 -0.258868
atom -0.21744 5.20706 10.14372 S 0.0 0.0 -0.296827 0.924857 -0.478778
atom 6.58999 3.27186 9.36982 S 0.0 0.0 -0.998451 0.314292 -0.393750
atom -0.65029 9.24102 10.17868 S 0.0 0.0 0.249665 0.166922 0.030548
atom 2.82807 9.40668 3.66491 S 0.0 0.0 0.080715 -0.288997 0.102972
atom 9.93267 3.32469 3.19899 S 0.0 0.0 0.281937 0.300657 1.066926
atom 6.15886 3.55937 4.98302 S 0.0 0.0 -0.541464 -0.085489 -0.195005
atom 6.55761 9.42416 1.70520 S 0.0 0.0 -0.013951 0.539254 -0.324768
atom 3.24932 9.41451 8.10094 S 0.0 0.0 0.737942 0.338597 -0.012225
atom 2.81958 3.53690 11.67167 S 0.0 0.0 -0.499894 -0.065945 -0.284442
atom 0.27740 3.56207 6.35777 S 0.0 0.0 0.882700 0.030873 -0.146592
atom 12.51305 9.07814 0.23047 S 0.0 0.0 -0.125059 0.126175 -0.573348
atom 9.33942 9.53325 6.60464 S 0.0 0.0 -0.219127 -0.022767 0.038603
atom -3.04401 3.30013 12.45307 S 0.0 0.0 0.192408 0.289395 -0.090380
atom 0.06466 3.40617 1.96635 S 0.0 0.0 -0.192669 -0.289254 0.117633
atom 13.09685 9.38548 4.50216 S 0.0 0.0 -0.030697 0.250712 0.800864
atom 9.56015 9.39957 10.99553 S 0.0 0.0 -0.038895 0.236298 -0.287928
atom -3.54682 3.59937 8.24479 S 0.0 0.0 0.154331 0.124697 -0.308901
atom 11.93914 3.64709 4.18304 Cu 0.0 0.0 0.079584 -0.723006 -0.089095
atom 0.75427 9.46550 2.86108 Cu 0.0 0.0 0.062867 -0.078316 -0.016920
atom -2.68276 9.59280 9.18197 Cu 0.0 0.0 0.023360 0.166463 -0.192465
atom 8.37423 3.53657 10.67014 Cu 0.0 0.0 -0.066509 0.982606 -0.221966
atom 1.36650 8.93601 9.20679 Cu 0.0 0.0 -0.098143 -0.115916 -0.206100
atom 0.59820 7.48750 11.15619 Cu 0.0 0.0 -0.402487 -0.438184 -0.224817
atom 4.41794 9.01714 2.21050 Cu 0.0 0.0 0.211014 0.024416 0.313059
atom 8.27931 5.21134 3.23752 Cu 0.0 0.0 0.619759 0.149476 -0.248889
atom 8.77454 1.25445 2.01033 Cu 0.0 0.0 -0.408818 -0.074752 -0.421767
atom 3.22821 9.60105 5.81572 Cu 0.0 0.0 0.186371 0.018508 0.051049
atom 0.60310 11.20924 10.04867 Cu 0.0 0.0 -0.326814 0.066292 -0.211595
atom 2.94634 6.62826 9.55072 Cu 0.0 0.0 -0.153387 -0.069309 0.074938
atom 5.66812 3.73915 0.55733 Cu 0.0 0.0 0.137803 -0.252112 0.170092
atom 5.25766 6.11888 6.70610 Cu 0.0 0.0 -0.052852 0.401313 -0.233926
atom 3.42136 9.67797 12.25924 Cu 0.0 0.0 0.441521 -0.475408 -0.008830
atom 2.46010 3.39633 7.02958 Cu 0.0 0.0 0.035997 0.162503 0.229540
atom -4.14588 1.43475 11.57385 Cu 0.0 0.0 -0.419052 0.157959 -0.186471
atom 10.15954 7.44026 7.65243 Cu 0.0 0.0 -0.530590 0.427108 -0.691387
atom 13.80565 0.53766 2.57521 Cu 0.0 0.0 0.183168 -0.338790 -0.251622
atom -0.88640 5.78605 5.93724 Cu 0.0 0.0 -0.320046 -0.651573 0.425186
atom -0.44799 1.43772 5.41929 Cu 0.0 0.0 0.099278 0.377390 0.036379
atom 13.46906 7.31515 1.38663 Cu 0.0 0.0 0.151535 -0.551925 -0.148595
atom 10.28275 11.73226 6.88681 Cu 0.0 0.0 0.753023 -1.388622 0.009262
atom -3.38410 3.73514 10.36967 Cu 0.0 0.0 0.000934 0.222907 0.192260
atom 0.75732 1.27150 2.33366 Cu 0.0 0.0 -0.043500 -0.289167 0.140218
atom 0.23230 6.34432 8.21060 Cu 0.0 0.0 0.019212 0.372093 0.276799
atom -6.19209 0.21732 12.66414 Cu 0.0 0.0 -0.082612 0.114579 0.730231
atom 9.58453 1.18074 4.53130 Cu 0.0 0.0 0.258412 -0.339406 -0.344200
atom -2.66172 0.89936 6.47180 Cu 0.0 0.0 -0.454922 -0.661941 0.629402
atom 8.38681 11.43011 10.66350 Cu 0.0 0.0 0.025294 -0.445879 -0.122878
atom -0.56966 9.55559 5.32710 Cu 0.0 0.0 -0.562128 -0.112077 -0.001071
atom -0.10637 6.30315 0.14931 Cu 0.0 0.0 -0.070438 0.513088 0.340686
atom 10.22572 3.24804 7.38186 Cu 0.0 0.0 0.029904 0.622414 0.010501
atom -4.06360 9.31168 11.76447 Cu 0.0 0.0 -0.270161 -0.255326 0.072332
atom -1.47973 3.25464 7.50328 Cu 0.0 0.0 -0.609778 -0.121828 0.064243
atom 13.79595 3.41065 1.00526 Cu 0.0 0.0 0.232218 -0.443038 0.065179
atom 11.21567 0.24818 1.50243 Cu 0.0 0.0 0.082129 -0.105576 0.342409
atom 5.23302 5.33069 9.27683 Cu 0.0 0.0 -0.656289 -0.380438 0.010507
atom 8.57635 9.47229 2.61728 Cu 0.0 0.0 0.507247 0.179868 0.135884
atom 6.08201 3.56856 7.15955 Cu 0.0 0.0 0.028123 0.643395 0.968420
atom 4.47004 0.09872 6.23923 Cu 0.0 0.0 0.116415 0.176009 -0.087127
atom 10.84389 5.63529 1.98888 Cu 0.0 0.0 -0.081230 0.461901 0.092377
atom 5.52410 1.04875 8.37789 Cu 0.0 0.0 0.323495 0.566692 0.101307
atom 8.73241 6.04175 0.46035 Cu 0.0 0.0 -0.361939 0.113102 -0.089672
atom 0.75139 3.20785 10.41677 Cu 0.0 0.0 0.562002 0.384126 0.504604
atom 7.23749 9.58409 5.62811 Cu 0.0 0.0 0.371905 -0.198898 0.092428
atom 10.01840 3.38213 1.12292 Cu 0.0 0.0 -0.168756 0.031778 -1.519184
atom 0.22326 3.75333 4.21639 Cu 0.0 0.0 -0.100411 0.076586 -0.657501
atom 10.33515 0.57697 9.28140 Cu 0.0 0.0 0.909267 -0.212813 -0.287348
atom -4.85907 6.63507 9.78747 Cu 0.0 0.0 -0.043736 -0.457729 0.787006
atom 1.80646 0.29931 4.69567 Cu 0.0 0.0 -0.571362 -0.399727 0.700232
atom -0.17002 9.77405 12.31549 Cu 0.0 0.0 -0.212662 -0.173628 -0.356229
atom -1.73573 0.35395 11.22015 Cu 0.0 0.0 0.185071 -0.073391 0.005540
atom 1.10299 5.42151 2.25936 Cu 0.0 0.0 0.535342 0.008924 0.114783
atom 5.26076 11.45578 0.96892 Cu 0.0 0.0 0.482120 -0.129484 0.056564
atom 6.26831 6.80025 3.20123 Cu 0.0 0.0 -0.104777 -0.372931 -0.082770
atom -1.72559 5.89892 11.64138 Cu 0.0 0.0 0.125080 0.076338 -0.302447
atom 8.45479 7.43691 10.45046 Cu 0.0 0.0 0.298806 0.504522 -0.336673
atom 13.13888 9.63569 2.38489 Cu 0.0 0.0 -0.059876 0.059019 -0.132766
atom 10.96480 8.65260 1.67369 Cu 0.0 0.0 -0.511463 -0.449429 0.431923
atom 6.94024 1.62099 6.12510 Cu 0.0 0.0 -0.087421 -0.783863 -0.797434
atom 12.37305 6.59575 6.39711 Cu 0.0 0.0 -0.003628 0.199613 0.149639
atom 2.28878 11.28244 7.38376 Cu 0.0 0.0 -0.607574 0.486133 0.234192
atom -0.45528 0.44976 7.95637 Cu 0.0 0.0 0.191337 0.023960 -0.391490
atom 3.50342 0.87103 9.84268 Cu 0.0 0.0 -0.178867 -0.173649 -0.487645
atom 4.01151 5.53031 11.78525 Cu 0.0 0.0 0.067606 -0.004385 0.055939
atom 7.86134 2.83998 3.73370 Cu 0.0 0.0 -0.650562 -0.110570 0.482378
atom -4.32697 5.56762 12.31627 Cu 0.0 0.0 -0.374924 -0.463765 -0.270806
atom 4.21421 11.24521 3.78931 Cu 0.0 0.0 -0.282290 0.074831 -0.000336
atom 11.26474 8.89762 5.68536 Cu 0.0 0.0 -0.171132 0.217732 0.056646
atom 8.06515 0.23118 8.07074 Cu 0.0 0.0 -0.185931 -0.130831 0.151695
atom -2.17704 5.60026 8.72976 Cu 0.0 0.0 -0.204469 -0.006928 0.136281
atom 4.69197 3.16947 10.52441 Cu 0.0 0.0 0.106879 -0.049569 -0.077714
atom 5.36728 9.41286 8.92115 Cu 0.0 0.0 -0.001800 -0.296800 0.253175
atom 3.46888 6.56168 1.88753 Cu 0.0 0.0 0.048413 -0.183146 0.495787
atom 3.88310 3.39167 4.13444 Cu 0.0 0.0 0.296321 0.263392 0.021881
atom 13.60025 10.98626 0.43871 Cu 0.0 0.0 0.237767 0.815160 -0.405670
atom 11.93929 7.47173 3.71695 Cu 0.0 0.0 0.196956 -0.391344 0.167377
atom 9.43481 9.78522 8.80028 Cu 0.0 0.0 0.065811 -0.074787 0.215765
atom 7.33678 5.85525 8.32335 Cu 0.0 0.0 0.650241 0.232557 -0.413134
atom 3.60831 1.47683 12.16766 Cu 0.0 0.0 -0.126476 -0.152943 0.628750
atom 2.41762 7.61191 7.19536 Cu 0.0 0.0 -0.443831 -0.884688 -0.414678
atom 3.14696 0.70250 1.42136 Cu 0.0 0.0 -0.358877 0.120648 0.252937
atom 7.45288 5.42922 5.71329 Cu 0.0 0.0 -0.494011 -0.114273 -0.557285
atom 6.44548 0.37961 3.09436 Cu 0.0 0.0 0.353961 0.704487 -0.482540
atom 5.92182 7.42931 0.86792 Cu 0.0 0.0 -0.078555 -0.257371 -0.600137
atom 4.13053 7.47281 4.65151 Cu 0.0 0.0 -0.081661 -0.150479 -0.300800
atom 0.73468 0.26528 12.25057 Cu 0.0 0.0 -0.186866 0.733722 0.986313
atom 1.97748 3.32017 0.82498 Cu 0.0 0.0 -0.699860 -0.174958 0.542625
atom 9.78612 6.51775 5.21378 Cu 0.0 0.0 0.129650 0.390225 -0.533088
atom 5.81931 0.67906 11.12905 Cu 0.0 0.0 0.266541 -0.135915 -0.208204
atom 1.13562 6.32560 4.69451 Cu 0.0 0.0 0.810979 0.115644 0.006073
atom -2.67951 1.49602 9.01018 Cu 0.0 0.0 -0.251678 0.122824 0.079661
atom 6.56088 6.54853 11.67911 Cu 0.0 0.0 -0.708001 -0.408822 0.628880
atom 11.91110 11.39169 4.22786 Cu 0.0 0.0 0.016809 0.215253 -0.139381
atom -1.07445 6.01439 3.38823 Cu 0.0 0.0 -0.235465 0.283655 0.015502
energy -569.274910
charge 0.0
end
begin
comment source_file_name=OUTCAR_10_100
lattice 15.505073664 0.000000000 0.000000000
lattice -0.045280387 12.014540067 0.000000000
lattice -6.566131376 -0.112080884 13.056989173
atom 9.62370 1.37534 11.15137 S 0.0 0.0 0.092507 0.170216 0.446437
atom -3.46110 7.35493 8.51113 S 0.0 0.0 0.513625 0.478487 -0.135028
atom -0.20503 11.23143 1.89396 S 0.0 0.0 0.367217 0.994965 -0.084911
atom 12.52595 5.35355 4.56280 S 0.0 0.0 0.240859 0.166486 0.248349
atom 12.66390 1.40557 4.58257 S 0.0 0.0 0.624802 -0.549330 0.245255
atom -0.16079 7.50669 1.90487 S 0.0 0.0 0.553096 0.238907 0.570150
atom -3.32270 11.28820 8.30843 S 0.0 0.0 -0.426863 -0.411113 0.722910
atom 9.56831 5.46520 11.55063 S 0.0 0.0 -0.532940 -0.130393 -0.404123
atom 9.09737 1.48388 6.93828 S 0.0 0.0 0.370235 -0.762773 -0.538368
atom -3.03081 7.47286 12.93919 S 0.0 0.0 0.204875 -0.964616 0.675735
atom 0.33752 11.73785 6.25383 S 0.0 0.0 -0.531471 -0.871499 0.316915
atom 12.31811 5.42284 0.12365 S 0.0 0.0 -0.086259 -0.307383 0.631457
atom 12.22042 1.52822 0.46730 S 0.0 0.0 -0.148376 -0.557725 0.304409
atom 0.14611 7.47207 6.43481 S 0.0 0.0 0.193452 -0.130404 -0.499454
atom -3.01964 11.22181 12.85922 S 0.0 0.0 0.149664 0.575068 -0.041375
atom 9.19889 5.33876 7.10225 S 0.0 0.0 -0.281242 0.000608 0.055393
atom 3.40343 1.43134 7.98485 S 0.0 0.0 -0.555820 0.993172 -0.554658
atom 2.40353 7.18120 12.04709 S 0.0 0.0 0.471771 -0.225183 -0.189348
atom 6.00174 11.32775 5.15867 S 0.0 0.0 0.214318 1.074127 0.157728
atom 6.58016 5.33261 1.80108 S 0.0 0.0 -0.712507 -1.649284 -0.354764
atom 6.81544 1.40613 1.39838 S 0.0 0.0 -0.132116 -1.004133 -0.393881
atom 6.13186 7.45585 5.38435 S 0.0 0.0 -0.348476 -0.001038 0.358583
atom 2.64911 10.93396 11.46415 S 0.0 0.0 0.336875 0.532832 0.568277
atom 3.32387 5.25929 7.98756 S 0.0 0.0 -0.240343 0.464504 0.183282
atom -0.27932 1.21998 10.23607 S 0.0 0.0 0.289434 0.825130 -0.387029
atom 6.27314 7.50837 9.47784 S 0.0 0.0 -0.562326 0.422457 0.591584
atom 9.68272 11.07561 3.10857 S 0.0 0.0 0.368600 0.415940 0.030102
atom 2.92521 5.31935 3.80195 S 0.0 0.0 0.829065 0.161724 -0.437231
atom 3.35895 1.54602 3.42653 S 0.0 0.0 -0.844696 0.105676 1.761241
atom 9.55148 7.34043 3.20079 S 0.0 0.0 0.123350 -0.158593 -0.528219
atom 6.41205 11.34274 9.58397 S 0.0 0.0 -1.651014 -0.138183 -0.191128
atom -0.52263 5.03330 10.13240 S 0.0 0.0 0.442646 0.426586 0.003158
atom 6.57311 3.05258 9.91719 S 0.0 0.0 -0.433428 0.405147 0.040696
atom -0.46870 9.06718 10.25281 S 0.0 0.0 -0.035777 0.009646 -0.674254
atom 2.86796 9.41304 3.81611 S 0.0 0.0 -0.566185 0.621480 0.011255
atom 9.59123 3.18772 3.23891 S 0.0 0.0 0.691121 0.317100 -0.278194
atom 6.09494 3.38387 5.58427 S 0.0 0.0 -0.224192 0.063968 0.114119
atom 6.59221 9.18208 1.52189 S 0.0 0.0 -0.346298 0.619210 -0.237822
atom 3.35163 9.43097 8.05472 S 0.0 0.0 -0.915091 -0.159230 0.194672
atom 2.65123 3.29074 11.87000 S 0.0 0.0 0.316888 0.188579 0.453851
atom 0.40712 3.54632 6.15627 S 0.0 0.0 -0.555779 -0.278748 -0.666797
atom 12.20780 9.35897 0.45712 S 0.0 0.0 -0.431874 0.057188 -0.942268
atom 8.92773 9.44605 6.84989 S 0.0 0.0 -0.640990 0.146063 0.176356
atom -2.78398 3.40324 12.84811 S 0.0 0.0 0.372158 -0.534269 0.407894
atom -0.21594 3.55149 1.76597 S 0.0 0.0 1.004621 -0.288704 -0.255407
atom 12.80048 9.27017 4.76462 S 0.0 0.0 0.199054 0.992864 0.282298
atom 9.30185 9.58550 11.18534 S 0.0 0.0 0.192814 -0.530473 0.386151
atom -3.33357 3.22592 8.46755 S 0.0 0.0 0.623610 0.286265 0.264650
atom 11.62352 3.22975 4.33117 Cu 0.0 0.0 -0.359988 0.944530 -0.382886
atom 0.83317 9.34463 2.84070 Cu 0.0 0.0 -0.107169 0.072029 -0.249155
atom -2.29965 9.25986 9.06822 Cu 0.0 0.0 -0.391065 0.242851 -0.367345
atom 8.51131 3.60998 10.82216 Cu 0.0 0.0 0.367214 -0.144855 0.160129
atom 1.30396 8.93372 8.77608 Cu 0.0 0.0 -0.258273 -0.204013 0.366297
atom 0.42728 7.06063 10.87900 Cu 0.0 0.0 -0.221992 0.084128 0.278033
atom 4.65502 9.10788 2.66228 Cu 0.0 0.0 0.588832 -0.091270 -0.383487
atom 8.48681 5.26646 3.26950 Cu 0.0 0.0 0.056045 -0.145852 -0.449750
atom 8.96717 1.06368 2.27347 Cu 0.0 0.0 0.102199 0.089194 -0.218108
atom 3.35508 9.82772 5.97913 Cu 0.0 0.0 -0.101693 -0.174214 -0.914192
atom 0.80351 10.94011 10.10084 Cu 0.0 0.0 -0.003329 0.508111 0.444669
atom 2.54008 6.20720 9.93325 Cu 0.0 0.0 0.455580 0.026000 -0.365976
atom 5.74332 3.33452 1.00078 Cu 0.0 0.0 -0.064474 0.178913 0.009308
atom 4.96262 6.43562 6.91158 Cu 0.0 0.0 -0.347426 -0.300350 0.239897
atom 3.48514 9.17196 12.78247 Cu 0.0 0.0 0.041353 -0.155962 -0.343327
atom 2.22589 3.31781 7.26879 Cu 0.0 0.0 0.812863 -0.116036 0.275907
atom -3.59863 1.35767 12.00180 Cu 0.0 0.0 -0.285911 -0.045437 0.004375
atom 9.86307 7.56767 7.83015 Cu 0.0 0.0 -0.202036 -0.454851 0.296984
atom 13.63330 0.49595 2.70067 Cu 0.0 0.0 0.260229 -0.163438 0.488565
atom -1.04393 5.26152 5.74379 Cu 0.0 0.0 -0.124384 0.686851 -0.028521
atom -0.68929 1.54380 5.27535 Cu 0.0 0.0 0.039190 0.090923 0.136245
atom 6.27131 6.57112 11.40638 Cu 0.0 0.0 0.020906 -0.315124 0.371656
atom 10.08186 11.38385 7.05050 Cu 0.0 0.0 0.373429 0.075398 0.153709
atom -2.57394 3.64906 10.66037 Cu 0.0 0.0 -0.399634 -0.122516 -0.207512
atom 0.81744 1.35703 2.73802 Cu 0.0 0.0 -0.098852 0.112657 0.033602
atom 0.29706 6.43096 8.37944 Cu 0.0 0.0 -0.305099 -0.264236 0.380251
atom 0.76203 0.74697 0.30500 Cu 0.0 0.0 -0.259874 -0.270844 -0.323913
atom 9.39162 0.50380 4.78676 Cu 0.0 0.0 -0.309759 0.199275 0.405411
atom -2.99386 0.80855 6.78187 Cu 0.0 0.0 0.227355 0.027333 -0.569247
atom 8.08161 11.65104 10.85801 Cu 0.0 0.0 1.298716 -0.085808 0.874245
atom -0.57765 9.68821 5.88214 Cu 0.0 0.0 -0.078257 -0.280222 -0.144053
atom 8.46367 7.02719 12.86944 Cu 0.0 0.0 0.125938 -0.367460 -0.801738
atom 10.20887 3.25584 7.51952 Cu 0.0 0.0 -0.224845 0.549409 -0.090749
atom -4.15297 9.31631 12.53277 Cu 0.0 0.0 -0.433969 0.189495 -0.514635
atom -1.33538 3.47231 7.45246 Cu 0.0 0.0 -0.481554 -0.629591 0.032533
atom 13.20903 3.47119 1.09825 Cu 0.0 0.0 -0.196808 0.086573 -0.544279
atom 11.26688 11.89485 1.75667 Cu 0.0 0.0 -0.144552 0.189436 -0.090025
atom 5.04716 4.89350 9.34139 Cu 0.0 0.0 0.110431 0.244779 0.623656
atom 9.27453 3.38317 1.06094 Cu 0.0 0.0 -0.020748 0.507157 -0.026175
atom 6.47875 3.67964 7.85735 Cu 0.0 0.0 0.156292 -0.166251 -1.217173
atom 4.43699 0.25856 6.36919 Cu 0.0 0.0 0.167508 0.231833 0.256024
atom -1.35307 6.44080 3.32342 Cu 0.0 0.0 -0.509700 -0.597876 0.640635
atom 5.43166 1.20916 8.68563 Cu 0.0 0.0 0.785942 0.102285 0.531036
atom 10.55239 6.37630 1.43648 Cu 0.0 0.0 0.248370 -0.307339 -0.006388
atom 0.71849 3.25318 10.94681 Cu 0.0 0.0 -0.648752 -0.096834 -0.516323
atom 6.72936 9.58912 6.04647 Cu 0.0 0.0 0.757506 -1.165607 0.149030
atom 12.96873 9.58186 2.48181 Cu 0.0 0.0 -0.123028 0.163142 0.862502
atom -0.13254 3.68710 3.87394 Cu 0.0 0.0 0.287301 -0.024348 1.024392
atom 10.44565 11.88406 9.69728 Cu 0.0 0.0 0.336191 0.215251 -0.094183
atom -4.34872 6.30704 10.18302 Cu 0.0 0.0 -0.127130 -0.372989 0.306787
atom 1.85075 0.93848 5.21006 Cu 0.0 0.0 0.822644 0.122539 -0.867655
atom -0.48566 9.42373 12.40317 Cu 0.0 0.0 0.291919 0.084558 0.385183
atom -1.28693 11.83736 11.45231 Cu 0.0 0.0 -0.891813 -0.628480 1.008164
atom 1.09045 5.55119 2.42137 Cu 0.0 0.0 -0.483279 -0.207151 -0.423286
atom 5.46403 11.40726 1.03845 Cu 0.0 0.0 0.358809 -0.037335 0.200433
atom 5.94116 6.28207 3.55871 Cu 0.0 0.0 -0.317336 0.512096 0.538268
atom -1.88719 6.09322 11.60542 Cu 0.0 0.0 -0.043376 -0.018049 -0.244111
atom 8.88889 7.26816 10.27858 Cu 0.0 0.0 -0.494298 0.280808 0.443488
atom 8.69388 9.22270 2.37911 Cu 0.0 0.0 -0.390749 0.034007 0.004438
atom 8.21373 5.97304 0.63931 Cu 0.0 0.0 0.616852 0.398331 -0.787779
atom 7.13517 1.26155 5.92728 Cu 0.0 0.0 -0.713787 -0.233138 0.374029
atom 11.80946 6.51258 6.42634 Cu 0.0 0.0 0.522667 -0.385663 -0.170540
atom 2.31688 11.50803 7.58185 Cu 0.0 0.0 -0.685025 -0.418738 0.100951
atom -0.29947 0.28584 8.29626 Cu 0.0 0.0 0.194622 0.064184 -0.747393
atom 3.08923 0.51078 9.93784 Cu 0.0 0.0 0.170010 -0.261569 0.579852
atom 3.99864 5.29058 11.81596 Cu 0.0 0.0 -0.652431 -0.033013 0.164096
atom 7.68446 2.84355 4.14987 Cu 0.0 0.0 -0.064491 0.443171 0.162031
atom -4.05073 5.23878 12.71503 Cu 0.0 0.0 0.197920 0.325471 0.135819
atom 4.12131 11.42961 4.04981 Cu 0.0 0.0 -0.714926 0.084533 -0.763213
atom 10.84094 8.79224 5.99808 Cu 0.0 0.0 0.684420 0.628401 -0.868695
atom 7.99484 0.19918 8.33449 Cu 0.0 0.0 0.224164 0.132249 -0.187211
atom -2.40301 5.36696 8.70421 Cu 0.0 0.0 0.034293 0.139129 0.000882
atom 4.63479 2.79035 10.98979 Cu 0.0 0.0 0.011460 0.029651 -0.252367
atom 5.24298 9.44558 9.02219 Cu 0.0 0.0 0.824510 0.132244 0.322234
atom 3.32999 6.55746 1.95706 Cu 0.0 0.0 0.327920 0.230913 -0.188200
atom 4.31379 3.43902 4.23530 Cu 0.0 0.0 -0.267436 0.178095 0.052033
atom 13.45854 11.31217 0.40727 Cu 0.0 0.0 0.153753 0.041306 0.148061
atom 11.70146 7.56623 3.86438 Cu 0.0 0.0 0.078023 -0.466467 -0.119680
atom 8.55346 9.42844 9.07365 Cu 0.0 0.0 0.301948 0.385789 -0.212916
atom 7.53446 6.45170 8.21849 Cu 0.0 0.0 0.795861 -0.957140 -0.796519
atom 3.39762 1.30389 12.77212 Cu 0.0 0.0 0.408756 -0.604463 -0.260134
atom 2.38287 7.39378 7.17081 Cu 0.0 0.0 0.230669 -0.260902 -0.140030
atom 3.15339 0.79723 1.49942 Cu 0.0 0.0 -0.150009 -0.647248 -1.206567
atom 7.30003 5.38267 5.75268 Cu 0.0 0.0 -0.295004 -0.067097 0.102964
atom 6.86248 0.52434 3.49496 Cu 0.0 0.0 -0.278246 -0.165969 -0.356325
atom 5.71326 7.12247 0.86225 Cu 0.0 0.0 -0.387562 0.601702 -0.148146
atom 3.62269 7.54334 4.74434 Cu 0.0 0.0 0.440203 -0.839219 -0.093218
atom 1.25344 -0.08267 12.79807 Cu 0.0 0.0 -0.338246 0.237958 0.461008
atom 1.95615 3.16349 1.06523 Cu 0.0 0.0 -0.458071 -0.162410 -0.138953
atom 9.54830 6.50803 5.23451 Cu 0.0 0.0 0.108891 0.017127 0.237317